
                                 *****************
                                 * O   R   C   A *
                                 *****************

           --- An Ab Initio, DFT and Semiempirical electronic structure package ---

                  #######################################################
                  #                        -***-                        #
                  #          Department of theory and spectroscopy      #
                  #               Directorship: Frank Neese             #
                  #        Max Planck Institute fuer Kohlenforschung    #
                  #                Kaiser Wilhelm Platz 1               #
                  #                 D-45470 Muelheim/Ruhr               #
                  #                      Germany                        #
                  #                                                     #
                  #                  All rights reserved                #
                  #                        -***-                        #
                  #######################################################


                         Program Version 4.1.2  - RELEASE  -


 With contributions from (in alphabetic order):
   Daniel Aravena         : Magnetic Properties
   Michael Atanasov       : Ab Initio Ligand Field Theory
   Alexander A. Auer      : GIAO ZORA
   Ute Becker             : Parallelization
   Giovanni Bistoni       : ED, Open-shell LED
   Martin Brehm           : Molecular dynamics
   Dmytro Bykov           : SCF Hessian
   Vijay G. Chilkuri      : MRCI spin determinant printing
   Dipayan Datta          : RHF DLPNO-CCSD density
   Achintya Kumar Dutta   : EOM-CC, STEOM-CC
   Dmitry Ganyushin       : Spin-Orbit,Spin-Spin,Magnetic field MRCI
   Miquel Garcia          : C-PCM Hessian
   Yang Guo               : DLPNO-NEVPT2, CIM, IAO-localization
   Andreas Hansen         : Spin unrestricted coupled pair/coupled cluster methods
   Benjamin Helmich-Paris : CASSCF linear response (MC-RPA)
   Lee Huntington         : MR-EOM, pCC
   Robert Izsak           : Overlap fitted RIJCOSX, COSX-SCS-MP3, EOM
   Christian Kollmar      : KDIIS, OOCD, Brueckner-CCSD(T), CCSD density
   Simone Kossmann        : Meta GGA functionals, TD-DFT gradient, OOMP2, MP2 Hessian
   Martin Krupicka        : AUTO-CI
   Lucas Lang             : DCDCAS
   Dagmar Lenk            : GEPOL surface, SMD
   Dimitrios Liakos       : Extrapolation schemes; parallel MDCI
   Dimitrios Manganas     : ROCIS; embedding schemes
   Dimitrios Pantazis     : SARC Basis sets
   Taras Petrenko         : DFT Hessian,TD-DFT gradient, ASA, ECA, R-Raman, ABS, FL, XAS/XES, NRVS
   Peter Pinski           : DLPNO-MP2, DLPNO-MP2 Gradient
   Christoph Reimann      : Effective Core Potentials
   Marius Retegan         : Local ZFS, SOC
   Christoph Riplinger    : Optimizer, TS searches, QM/MM, DLPNO-CCSD(T), (RO)-DLPNO pert. Triples
   Tobias Risthaus        : Range-separated hybrids, TD-DFT gradient, RPA, STAB
   Michael Roemelt        : Restricted open shell CIS
   Masaaki Saitow         : Open-shell DLPNO
   Barbara Sandhoefer     : DKH picture change effects
   Avijit Sen             : IP-ROCIS
   Kantharuban Sivalingam : CASSCF convergence, NEVPT2, FIC-MRCI
   Bernardo de Souza      : ESD, SOC TD-DFT
   Georgi Stoychev        : AutoAux, RI-MP2 NMR
   Willem Van den Heuvel  : Paramagnetic NMR
   Boris Wezisla          : Elementary symmetry handling
   Frank Wennmohs         : Technical directorship


 We gratefully acknowledge several colleagues who have allowed us to
 interface, adapt or use parts of their codes:
   Stefan Grimme, W. Hujo, H. Kruse,             : VdW corrections, initial TS optimization,
                  C. Bannwarth                     DFT functionals, gCP, sTDA/sTD-DF
   Ed Valeev                                     : LibInt (2-el integral package), F12 methods
   Garnet Chan, S. Sharma, J. Yang, R. Olivares  : DMRG
   Ulf Ekstrom                                   : XCFun DFT Library
   Mihaly Kallay                                 : mrcc  (arbitrary order and MRCC methods)
   Andreas Klamt, Michael Diedenhofen            : otool_cosmo (COSMO solvation model)
   Jiri Pittner, Ondrej Demel                    : Mk-CCSD
   Frank Weinhold                                : gennbo (NPA and NBO analysis)
   Christopher J. Cramer and Donald G. Truhlar   : smd solvation model
   Lars Goerigk                                  : TD-DFT with DH, B97 family of functionals
   V. Asgeirsson, H. Jonsson                     : NEB implementation
   FAccTs GmbH                                   : IRC, NEB, NEB-TS, Multilevel


 Your calculation uses the libint2 library for the computation of 2-el integrals
 For citations please refer to: http://libint.valeyev.net

 This ORCA versions uses:
   CBLAS   interface :  Fast vector & matrix operations
   LAPACKE interface :  Fast linear algebra routines
   SCALAPACK package :  Parallel linear algebra routines




***************************************
The coordinates will be read from file: geom.xyz
***************************************


----- Orbital basis set information -----
Your calculation utilizes the basis: def2-SVP
   F. Weigend and R. Ahlrichs, Phys. Chem. Chem. Phys. 7, 3297 (2005).

----- AuxJ basis set information -----
Your calculation utilizes the auxiliary basis: def2/J
   F. Weigend, Phys. Chem. Chem. Phys. 8, 1057 (2006).

================================================================================
                                        WARNINGS
                       Please study these warnings very carefully!
================================================================================


INFO   : the flag for use of LIBINT has been found!

================================================================================
                                       INPUT FILE
================================================================================
NAME = moess.inp
|  1> ! bp86 def2-svp
|  2> 
|  3> * xyzfile 0 1 geom.xyz
|  4> 
|  5> %eprnmr
|  6> nuclei = all Fe {fgrad, rho}
|  7> end
|  8> 
|  9> 
| 10>                          ****END OF INPUT****
================================================================================

                       ****************************
                       * Single Point Calculation *
                       ****************************

---------------------------------
CARTESIAN COORDINATES (ANGSTROEM)
---------------------------------
  Fe     0.002211   -0.515467   -0.057041
  S      0.038176   -2.829800   -0.476282
  C      1.705782   -3.569445   -0.202375
  S     -1.658817   -0.292437   -1.553521
  S     -1.558229   -0.674178    1.639733
  S      1.609555   -0.358768   -1.743157
  S      1.628638   -0.437710    1.474907
  C     -5.501108    0.020122    0.943413
  C     -5.569128    0.188902   -0.448715
  C     -4.398291    0.107417   -1.203267
  C     -3.172211   -0.119275   -0.564830
  C     -3.086050   -0.309090    0.827952
  C     -4.284682   -0.221819    1.571627
  C      3.086004    0.047062   -0.842676
  C      3.125224    0.030246    0.561783
  C      4.280649    0.386089   -1.517541
  C      5.440821    0.699391   -0.812977
  C      5.455483    0.678770    0.590451
  C      4.293395    0.324596    1.274902
  C     -1.252725    1.463143   -2.026972
  C      1.141966    1.216466    2.186853
  C      0.599742    2.086874    1.100027
  C     -0.631752    2.197487   -0.882733
  N     -0.031758    1.442201    0.076315
  C     -0.618567    3.590922   -0.850106
  C      0.687340    3.476891    1.154912
  C      0.063584    4.247188    0.175045
  H     -6.407448    0.064990    1.541506
  H     -6.524778    0.360394   -0.935244
  H     -4.435000    0.221124   -2.284266
  H     -4.240942   -0.349651    2.650285
  H      4.285455    0.410510   -2.604316
  H      6.337377    0.968235   -1.365965
  H      6.353388    0.933202    1.146204
  H      4.287896    0.285447    2.361752
  H     -2.134418    1.964910   -2.430121
  H     -0.514172    1.329982   -2.823785
  H      1.983818    1.673642    2.709683
  H      0.356480    0.966600    2.906403
  H     -1.121572    4.140964   -1.638556
  H      1.218765    3.950336    1.974246
  H      0.111624    5.331190    0.210626
  H      1.984355   -3.498978    0.851066
  C     -0.903421   -3.860847    0.726223
  H      2.391700   -2.991848   -0.822514
  H      1.683679   -4.613242   -0.520410
  H     -0.489135   -3.730485    1.726783
  H     -0.837496   -4.903237    0.407316
  H     -1.939563   -3.525718    0.708967

----------------------------
CARTESIAN COORDINATES (A.U.)
----------------------------
  NO LB      ZA    FRAG     MASS         X           Y           Z
   0 Fe   26.0000    0    55.850    0.004178   -0.974091   -0.107792
   1 S    16.0000    0    32.060    0.072142   -5.347547   -0.900043
   2 C     6.0000    0    12.011    3.223461   -6.745274   -0.382433
   3 S    16.0000    0    32.060   -3.134710   -0.552626   -2.935729
   4 S    16.0000    0    32.060   -2.944626   -1.274012    3.098646
   5 S    16.0000    0    32.060    3.041618   -0.677973   -3.294089
   6 S    16.0000    0    32.060    3.077680   -0.827152    2.787170
   7 C     6.0000    0    12.011  -10.395588    0.038025    1.782792
   8 C     6.0000    0    12.011  -10.524127    0.356973   -0.847948
   9 C     6.0000    0    12.011   -8.311565    0.202989   -2.273845
  10 C     6.0000    0    12.011   -5.994610   -0.225397   -1.067374
  11 C     6.0000    0    12.011   -5.831789   -0.584095    1.564603
  12 C     6.0000    0    12.011   -8.096876   -0.419177    2.969945
  13 C     6.0000    0    12.011    5.831702    0.088934   -1.592427
  14 C     6.0000    0    12.011    5.905817    0.057157    1.061616
  15 C     6.0000    0    12.011    8.089254    0.729602   -2.867737
  16 C     6.0000    0    12.011   10.281662    1.321657   -1.536304
  17 C     6.0000    0    12.011   10.309369    1.282689    1.115791
  18 C     6.0000    0    12.011    8.113341    0.613398    2.409216
  19 C     6.0000    0    12.011   -2.367307    2.764940   -3.830422
  20 C     6.0000    0    12.011    2.158003    2.298788    4.132553
  21 C     6.0000    0    12.011    1.133348    3.943620    2.078750
  22 C     6.0000    0    12.011   -1.193838    4.152649   -1.668124
  23 N     7.0000    0    14.007   -0.060014    2.725365    0.144214
  24 C     6.0000    0    12.011   -1.168922    6.785859   -1.606468
  25 C     6.0000    0    12.011    1.298884    6.570372    2.182467
  26 C     6.0000    0    12.011    0.120156    8.026022    0.330787
  27 H     1.0000    0     1.008  -12.108322    0.122813    2.913024
  28 H     1.0000    0     1.008  -12.330044    0.681046   -1.767355
  29 H     1.0000    0     1.008   -8.380935    0.417864   -4.316637
  30 H     1.0000    0     1.008   -8.014219   -0.660745    5.008313
  31 H     1.0000    0     1.008    8.098336    0.775751   -4.921444
  32 H     1.0000    0     1.008   11.975907    1.829699   -2.581300
  33 H     1.0000    0     1.008   12.006163    1.763496    2.166012
  34 H     1.0000    0     1.008    8.102949    0.539417    4.463064
  35 H     1.0000    0     1.008   -4.033465    3.713142   -4.592263
  36 H     1.0000    0     1.008   -0.971644    2.513302   -5.336180
  37 H     1.0000    0     1.008    3.748873    3.162725    5.120559
  38 H     1.0000    0     1.008    0.673650    1.826609    5.492306
  39 H     1.0000    0     1.008   -2.119464    7.825288   -3.096422
  40 H     1.0000    0     1.008    2.303132    7.465053    3.730784
  41 H     1.0000    0     1.008    0.210939   10.074489    0.398025
  42 H     1.0000    0     1.008    3.749888   -6.612110    1.608282
  43 C     6.0000    0    12.011   -1.707218   -7.295943    1.372363
  44 H     1.0000    0     1.008    4.519658   -5.653773   -1.554326
  45 H     1.0000    0     1.008    3.181692   -8.717764   -0.983432
  46 H     1.0000    0     1.008   -0.924331   -7.049595    3.263147
  47 H     1.0000    0     1.008   -1.582638   -9.265775    0.769716
  48 H     1.0000    0     1.008   -3.665243   -6.662641    1.339753

--------------------------------
INTERNAL COORDINATES (ANGSTROEM)
--------------------------------
 Fe     0   0   0     0.000000000000     0.00000000     0.00000000
 S      1   0   0     2.352274161784     0.00000000     0.00000000
 C      2   1   0     1.844724787579   112.44783909     0.00000000
 S      1   2   3     2.246821930658    89.44188762   151.30883646
 S      1   2   3     2.310671803220    94.22213669   241.07563855
 S      1   2   3     2.334758333617    85.80188452    60.04489303
 S      1   2   3     2.235659994740    98.35025301   331.14472475
 C      5   1   2     4.063644772989   121.17711479   262.30282562
 C      8   5   1     1.403970718065   103.73646157     5.96961560
 C      9   8   5     1.395294881557   119.24508815   359.28530714
 C     10   9   8     1.400808064023   119.83116014   358.98699221
 C     11  10   9     1.408295122362   121.74263148     1.91195746
 C      8   5   1     1.390280723722    17.03838788   188.62574165
 C      6   1   2     1.776363045625   102.79424424   250.87567707
 C     14   6   1     1.405107137886   121.81348423     8.21215154
 C     14   6   1     1.413350186960   121.01731190   187.42121599
 C     16  14   6     1.393042584735   121.09135686   180.25978186
 C     17  16  14     1.403656065804   120.73623942     0.37677060
 C     18  17  16     1.394403425634   119.06504370     0.71731850
 C      4   1   2     1.863096266505    95.83440252   207.86142409
 C      7   1   2     1.865479826070    95.88684048   199.18177995
 C     21   7   1     1.494258246394   109.48784065   325.88157453
 C     20   4   1     1.494707819671   111.03643774   330.07503403
 N     23  20   4     1.360228954307   116.75647363    22.87872231
 C     23  20   4     1.393879286229   120.86307634   199.77008434
 C     22  21   7     1.393855456322   121.96849102   207.97521879
 C     26  22  21     1.393760507919   119.69247116   185.61417049
 H      8   5   1     1.086821314510   136.21227046   183.83040206
 H      9   8   5     1.085995808650   120.38717001   178.02446677
 H     10   9   8     1.087582489070   120.20403594   179.09787499
 H     13   8   5     1.087086605928   120.26671028   182.90120133
 H     16  14   6     1.087059972358   119.11038524     0.86141929
 H     17  16  14     1.087145567813   119.02413896   180.80535129
 H     18  17  16     1.086199994779   121.11512476   180.71999861
 H     19  18  17     1.087568759069   120.25758316   178.93407589
 H     20   4   1     1.091641784075   110.54365691   203.69455055
 H     20   4   1     1.094579071013   102.55787723    87.15816032
 H     21   7   1     1.091364235157   110.67366962   201.18113264
 H     21   7   1     1.094154228915   103.63692821    83.83848729
 H     25  23  20     1.084994762333   119.03848192     3.80240476
 H     26  22  21     1.085297609970   119.70494496     4.03584122
 H     27  26  22     1.085649199864   120.59671079   179.21081481
 H      3   2   1     1.091927861582   110.36490385    65.12850811
 C      2   1   3     1.842737393565   115.23783042   111.28611703
 H      3   2   1     1.090263351881   105.77465958   305.30674524
 H      3   2   1     1.091396802745   108.77721399   186.34615182
 H     44   2   1     1.090755451254   109.73407433   299.49835413
 H     44   2   1     1.092073574616   108.21938446   178.19084245
 H     44   2   1     1.089127843892   107.67473316    58.99751190

---------------------------
INTERNAL COORDINATES (A.U.)
---------------------------
 Fe     0   0   0     0.000000000000     0.00000000     0.00000000
 S      1   0   0     4.445153957670     0.00000000     0.00000000
 C      2   1   0     3.486024640981   112.44783909     0.00000000
 S      1   2   3     4.245878120631    89.44188762   151.30883646
 S      1   2   3     4.366536893460    94.22213669   241.07563855
 S      1   2   3     4.412053839426    85.80188452    60.04489303
 S      1   2   3     4.224785118623    98.35025301   331.14472475
 C      5   1   2     7.679175726490   121.17711479   262.30282562
 C      8   5   1     2.653120157188   103.73646157     5.96961560
 C      9   8   5     2.636725202204   119.24508815   359.28530714
 C     10   9   8     2.647143607193   119.83116014   358.98699221
 C     11  10   9     2.661292097002   121.74263148     1.91195746
 C      8   5   1     2.627249817104    17.03838788   188.62574165
 C      6   1   2     3.356839670649   102.79424424   250.87567707
 C     14   6   1     2.655267679422   121.81348423     8.21215154
 C     14   6   1     2.670844784680   121.01731190   187.42121599
 C     16  14   6     2.632468978038   121.09135686   180.25978186
 C     17  16  14     2.652525550587   120.73623942     0.37677060
 C     18  17  16     2.635040594651   119.06504370     0.71731850
 C      4   1   2     3.520741704826    95.83440252   207.86142409
 C      7   1   2     3.525245979628    95.88684048   199.18177995
 C     21   7   1     2.823738859038   109.48784065   325.88157453
 C     20   4   1     2.824588429409   111.03643774   330.07503403
 N     23  20   4     2.570460203071   116.75647363    22.87872231
 C     23  20   4     2.634050114719   120.86307634   199.77008434
 C     22  21   7     2.634005082720   121.96849102   207.97521879
 C     26  22  21     2.633825656241   119.69247116   185.61417049
 H      8   5   1     2.053794640932   136.21227046   183.83040206
 H      9   8   5     2.052234660935   120.38717001   178.02446677
 H     10   9   8     2.055233052390   120.20403594   179.09787499
 H     13   8   5     2.054295969058   120.26671028   182.90120133
 H     16  14   6     2.054245638904   119.11038524     0.86141929
 H     17  16  14     2.054407390873   119.02413896   180.80535129
 H     18  17  16     2.052620516799   121.11512476   180.71999861
 H     19  18  17     2.055207106448   120.25758316   178.93407589
 H     20   4   1     2.062904008247   110.54365691   203.69455055
 H     20   4   1     2.068454676136   102.55787723    87.15816032
 H     21   7   1     2.062379516803   110.67366962   201.18113264
 H     21   7   1     2.067651840921   103.63692821    83.83848729
 H     25  23  20     2.050342957547   119.03848192     3.80240476
 H     26  22  21     2.050915256642   119.70494496     4.03584122
 H     27  26  22     2.051579665253   120.59671079   179.21081481
 H      3   2   1     2.063444616388   110.36490385    65.12850811
 C      2   1   3     3.482269010574   115.23783042   111.28611703
 H      3   2   1     2.060299148905   105.77465958   305.30674524
 H      3   2   1     2.062441060626   108.77721399   186.34615182
 H     44   2   1     2.061229081951   109.73407433   299.49835413
 H     44   2   1     2.063719974116   108.21938446   178.19084245
 H     44   2   1     2.058153349784   107.67473316    58.99751190

---------------------
BASIS SET INFORMATION
---------------------
There are 5 groups of distinct atoms

 Group   1 Type Fe  : 14s9p5d1f contracted to 5s3p2d1f pattern {63311/531/41/1}
 Group   2 Type S   : 10s7p1d contracted to 4s3p1d pattern {5311/511/1}
 Group   3 Type C   : 7s4p1d contracted to 3s2p1d pattern {511/31/1}
 Group   4 Type N   : 7s4p1d contracted to 3s2p1d pattern {511/31/1}
 Group   5 Type H   : 4s1p contracted to 2s1p pattern {31/1}

Atom   0Fe   basis set group =>   1
Atom   1S    basis set group =>   2
Atom   2C    basis set group =>   3
Atom   3S    basis set group =>   2
Atom   4S    basis set group =>   2
Atom   5S    basis set group =>   2
Atom   6S    basis set group =>   2
Atom   7C    basis set group =>   3
Atom   8C    basis set group =>   3
Atom   9C    basis set group =>   3
Atom  10C    basis set group =>   3
Atom  11C    basis set group =>   3
Atom  12C    basis set group =>   3
Atom  13C    basis set group =>   3
Atom  14C    basis set group =>   3
Atom  15C    basis set group =>   3
Atom  16C    basis set group =>   3
Atom  17C    basis set group =>   3
Atom  18C    basis set group =>   3
Atom  19C    basis set group =>   3
Atom  20C    basis set group =>   3
Atom  21C    basis set group =>   3
Atom  22C    basis set group =>   3
Atom  23N    basis set group =>   4
Atom  24C    basis set group =>   3
Atom  25C    basis set group =>   3
Atom  26C    basis set group =>   3
Atom  27H    basis set group =>   5
Atom  28H    basis set group =>   5
Atom  29H    basis set group =>   5
Atom  30H    basis set group =>   5
Atom  31H    basis set group =>   5
Atom  32H    basis set group =>   5
Atom  33H    basis set group =>   5
Atom  34H    basis set group =>   5
Atom  35H    basis set group =>   5
Atom  36H    basis set group =>   5
Atom  37H    basis set group =>   5
Atom  38H    basis set group =>   5
Atom  39H    basis set group =>   5
Atom  40H    basis set group =>   5
Atom  41H    basis set group =>   5
Atom  42H    basis set group =>   5
Atom  43C    basis set group =>   3
Atom  44H    basis set group =>   5
Atom  45H    basis set group =>   5
Atom  46H    basis set group =>   5
Atom  47H    basis set group =>   5
Atom  48H    basis set group =>   5
-------------------------------
AUXILIARY BASIS SET INFORMATION
-------------------------------
There are 5 groups of distinct atoms

 Group   1 Type Fe  : 19s5p5d3f3g contracted to 8s5p5d2f3g pattern {121111111/11111/11111/21/111}
 Group   2 Type S   : 14s5p5d2f1g contracted to 8s4p3d1f1g pattern {71111111/2111/311/2/1}
 Group   3 Type C   : 12s5p4d2f1g contracted to 6s4p3d1f1g pattern {711111/2111/211/2/1}
 Group   4 Type N   : 12s5p4d2f1g contracted to 6s4p3d1f1g pattern {711111/2111/211/2/1}
 Group   5 Type H   : 5s2p1d contracted to 3s1p1d pattern {311/2/1}

Atom   0Fe   basis set group =>   1
Atom   1S    basis set group =>   2
Atom   2C    basis set group =>   3
Atom   3S    basis set group =>   2
Atom   4S    basis set group =>   2
Atom   5S    basis set group =>   2
Atom   6S    basis set group =>   2
Atom   7C    basis set group =>   3
Atom   8C    basis set group =>   3
Atom   9C    basis set group =>   3
Atom  10C    basis set group =>   3
Atom  11C    basis set group =>   3
Atom  12C    basis set group =>   3
Atom  13C    basis set group =>   3
Atom  14C    basis set group =>   3
Atom  15C    basis set group =>   3
Atom  16C    basis set group =>   3
Atom  17C    basis set group =>   3
Atom  18C    basis set group =>   3
Atom  19C    basis set group =>   3
Atom  20C    basis set group =>   3
Atom  21C    basis set group =>   3
Atom  22C    basis set group =>   3
Atom  23N    basis set group =>   4
Atom  24C    basis set group =>   3
Atom  25C    basis set group =>   3
Atom  26C    basis set group =>   3
Atom  27H    basis set group =>   5
Atom  28H    basis set group =>   5
Atom  29H    basis set group =>   5
Atom  30H    basis set group =>   5
Atom  31H    basis set group =>   5
Atom  32H    basis set group =>   5
Atom  33H    basis set group =>   5
Atom  34H    basis set group =>   5
Atom  35H    basis set group =>   5
Atom  36H    basis set group =>   5
Atom  37H    basis set group =>   5
Atom  38H    basis set group =>   5
Atom  39H    basis set group =>   5
Atom  40H    basis set group =>   5
Atom  41H    basis set group =>   5
Atom  42H    basis set group =>   5
Atom  43C    basis set group =>   3
Atom  44H    basis set group =>   5
Atom  45H    basis set group =>   5
Atom  46H    basis set group =>   5
Atom  47H    basis set group =>   5
Atom  48H    basis set group =>   5
------------------------------------------------------------------------------
                           ORCA GTO INTEGRAL CALCULATION
                           -- RI-GTO INTEGRALS CHOSEN --
------------------------------------------------------------------------------

                         BASIS SET STATISTICS AND STARTUP INFO

Gaussian basis set:
 # of primitive gaussian shells          ...  488
 # of primitive gaussian functions       ...  928
 # of contracted shells                  ...  246
 # of contracted basis functions         ...  534
 Highest angular momentum                ...    3
 Maximum contraction depth               ...    6
Auxiliary gaussian basis set:
 # of primitive gaussian shells          ...  866
 # of primitive gaussian functions       ... 2368
 # of contracted shells                  ...  543
 # of contracted aux-basis functions     ... 1653
 Highest angular momentum                ...    4
 Maximum contraction depth               ...   12
Ratio of auxiliary to basis functions    ...  3.10
Integral package used                  ... LIBINT
 One Electron integrals                  ... done
 Ordering auxiliary basis shells         ... done
 Integral threshhold             Thresh  ...  1.000e-10
 Primitive cut-off               TCut    ...  1.000e-11
 Pre-screening matrix                    ... done
 Shell pair data                         ... 
 Ordering of the shell pairs             ... done (   0.004 sec) 21426 of 30381 pairs
 Determination of significant pairs      ... done (   0.000 sec)
 Creation of shell pair data             ... done (   0.003 sec)
 Storage of shell pair data              ... done (   0.004 sec)
 Shell pair data done in (   0.011 sec)
 Computing two index integrals           ... done
 Cholesky decomposition of the V-matrix  ... done


Timings:
 Total evaluation time                   ...   0.546 sec (  0.009 min)
 One electron matrix time                ...   0.158 sec (  0.003 min) = 29.0%
 Schwartz matrix evaluation time         ...   0.249 sec (  0.004 min) = 45.6%
 Two index repulsion integral time       ...   0.051 sec (  0.001 min) =  9.3%
 Cholesky decomposition of V             ...   0.059 sec (  0.001 min) = 10.8%
 Three index repulsion integral time     ...   0.000 sec (  0.000 min) =  0.0%

-------------------------------------------------------------------------------
                                 ORCA SCF
-------------------------------------------------------------------------------

------------
SCF SETTINGS
------------
Hamiltonian:
 Density Functional     Method          .... DFT(GTOs)
 Exchange Functional    Exchange        .... B88
   X-Alpha parameter    XAlpha          ....  0.666667
   Becke's b parameter  XBeta           ....  0.004200
 Correlation Functional Correlation     .... P86
 LDA part of GGA corr.  LDAOpt          .... PW91-LDA
 Gradients option       PostSCFGGA      .... off
   Density functional embedding theory  .... OFF
 RI-approximation to the Coulomb term is turned on
   Number of auxiliary basis functions  .... 1653


General Settings:
 Integral files         IntName         .... moess
 Hartree-Fock type      HFTyp           .... RHF
 Total Charge           Charge          ....    0
 Multiplicity           Mult            ....    1
 Number of Electrons    NEL             ....  260
 Basis Dimension        Dim             ....  534
 Nuclear Repulsion      ENuc            ....   4512.7610570315 Eh

Convergence Acceleration:
 DIIS                   CNVDIIS         .... on
   Start iteration      DIISMaxIt       ....    12
   Startup error        DIISStart       ....  0.200000
   # of expansion vecs  DIISMaxEq       ....     5
   Bias factor          DIISBfac        ....   1.050
   Max. coefficient     DIISMaxC        ....  10.000
 Newton-Raphson         CNVNR           .... off
 SOSCF                  CNVSOSCF        .... off
 Level Shifting         CNVShift        .... on
   Level shift para.    LevelShift      ....    0.2500
   Turn off err/grad.   ShiftErr        ....    0.0010
 Zerner damping         CNVZerner       .... off
 Static damping         CNVDamp         .... on
   Fraction old density DampFac         ....    0.7000
   Max. Damping (<1)    DampMax         ....    0.9800
   Min. Damping (>=0)   DampMin         ....    0.0000
   Turn off err/grad.   DampErr         ....    0.1000
 Fernandez-Rico         CNVRico         .... off

SCF Procedure:
 Maximum # iterations   MaxIter         ....   125
 SCF integral mode      SCFMode         .... Direct
   Integral package                     .... LIBINT
 Reset frequency        DirectResetFreq ....    20
 Integral Threshold     Thresh          ....  1.000e-10 Eh
 Primitive CutOff       TCut            ....  1.000e-11 Eh

Convergence Tolerance:
 Convergence Check Mode ConvCheckMode   .... Total+1el-Energy
 Convergence forced     ConvForced      .... 0
 Energy Change          TolE            ....  1.000e-06 Eh
 1-El. energy change                    ....  1.000e-03 Eh
 DIIS Error             TolErr          ....  1.000e-06


Diagonalization of the overlap matrix:
Smallest eigenvalue                        ... 2.675e-04
Time for diagonalization                   ...    0.039 sec
Threshold for overlap eigenvalues          ... 1.000e-08
Number of eigenvalues below threshold      ... 0
Time for construction of square roots      ...    0.022 sec
Total time needed                          ...    0.062 sec

-------------------
DFT GRID GENERATION
-------------------

General Integration Accuracy     IntAcc      ...  4.340
Radial Grid Type                 RadialGrid  ... Gauss-Chebyshev
Angular Grid (max. acc.)         AngularGrid ... Lebedev-110
Angular grid pruning method      GridPruning ... 3 (G Style)
Weight generation scheme         WeightScheme... Becke
Basis function cutoff            BFCut       ...    1.0000e-10
Integration weight cutoff        WCut        ...    1.0000e-14
Grids for H and He will be reduced by one unit

# of grid points (after initial pruning)     ...  65094 (   0.0 sec)
# of grid points (after weights+screening)   ...  57346 (   0.6 sec)
nearest neighbour list constructed           ...    0.0 sec
Grid point re-assignment to atoms done       ...    0.0 sec
Grid point division into batches done        ...    0.0 sec
Reduced shell lists constructed in    0.8 sec

Total number of grid points                  ...    57346
Total number of batches                      ...      919
Average number of points per batch           ...       62
Average number of grid points per atom       ...     1170
Average number of shells per batch           ...   101.60 (41.30%)
Average number of basis functions per batch  ...   206.98 (38.76%)
Average number of large shells per batch     ...    60.39 (59.44%)
Average number of large basis fcns per batch ...   125.03 (60.41%)
Maximum spatial batch extension              ...  21.07, 26.38, 22.76 au
Average spatial batch extension              ...   3.39,  3.57,  3.40 au

Time for grid setup =    1.452 sec

------------------------------
INITIAL GUESS: MODEL POTENTIAL
------------------------------
Loading Hartree-Fock densities                     ... done
Calculating cut-offs                               ... done
Setting up the integral package                    ... done
Initializing the effective Hamiltonian             ... done
Starting the Coulomb interaction                   ... done (   1.9 sec)
Reading the grid                                   ... done
Mapping shells                                     ... done
Starting the XC term evaluation                    ... done (   1.1 sec)
  promolecular density results
     # of electrons  =    260.013726106
     EX              =   -300.513991853
     EC              =    -10.555556456
     EX+EC           =   -311.069548309
Transforming the Hamiltonian                       ... done (   0.0 sec)
Diagonalizing the Hamiltonian                      ... done (   0.0 sec)
Back transforming the eigenvectors                 ... done (   0.0 sec)
Now organizing SCF variables                       ... done
                      ------------------
                      INITIAL GUESS DONE (   4.6 sec)
                      ------------------
--------------
SCF ITERATIONS
--------------
ITER       Energy         Delta-E        Max-DP      RMS-DP      [F,P]     Damp
               ***  Starting incremental Fock matrix formation  ***
  0  -4120.8681955049   0.000000000000 0.25253194  0.00398631  0.2398303 0.7000
  1  -4120.9545125381  -0.086317033218 0.20867207  0.00171686  0.3135724 0.7000
                               ***Turning on DIIS***
  2  -4121.1203510170  -0.165838478969 0.09386327  0.00072750  0.1469341 0.7000
  3  -4121.2314295263  -0.111078509262 0.14976744  0.00142328  0.0388694 0.0000
  4  -4121.4422518653  -0.210822338987 0.05906568  0.00071564  0.0925249 0.0000
  5  -4121.4615470055  -0.019295140217 0.02006254  0.00024166  0.0125706 0.0000
  6  -4121.4636058623  -0.002058856800 0.01043475  0.00014423  0.0037681 0.0000
  7  -4121.4641512828  -0.000545420458 0.00731819  0.00007856  0.0059296 0.0000
  8  -4121.4644367327  -0.000285449971 0.00338699  0.00005275  0.0028592 0.0000
  9  -4121.4645458688  -0.000109136037 0.00372619  0.00003301  0.0016787 0.0000
 10  -4121.4645704538  -0.000024585056 0.00244471  0.00002404  0.0036569 0.0000
 11  -4121.4646058430  -0.000035389138 0.00533608  0.00005993  0.0003679 0.0000
 12  -4121.4645786445   0.000027198436 0.00052814  0.00000624  0.0046071 0.0000
 13  -4121.4645963495  -0.000017705008 0.00035339  0.00000356  0.0035421 0.0000
 14  -4121.4646049104  -0.000008560865 0.00031122  0.00000250  0.0029690 0.0000
 15  -4121.4646100822  -0.000005171760 0.00050608  0.00000394  0.0024549 0.0000
 16  -4121.4646158896  -0.000005807468 0.00072238  0.00000746  0.0014710 0.0000
 17  -4121.4646202759  -0.000004386250 0.00218947  0.00001644  0.0004608 0.0000
 18  -4121.4646118776   0.000008398300 0.00021581  0.00000278  0.0020914 0.0000
 19  -4121.4646160595  -0.000004181912 0.00017562  0.00000171  0.0016047 0.0000
               *** Restarting incremental Fock matrix formation ***
                                   *** Resetting DIIS ***
 20  -4121.4646237734  -0.000007713905 0.00327758  0.00003097  0.0012631 0.0000
 21  -4121.4645667518   0.000057021589 0.00152873  0.00001273  0.0063846 0.0000
 22  -4121.4646055362  -0.000038784394 0.00052157  0.00000635  0.0033031 0.0000
 23  -4121.4646184632  -0.000012926958 0.00029687  0.00000357  0.0020256 0.0000
 24  -4121.4646237949  -0.000005331733 0.00024149  0.00000292  0.0013467 0.0000
 25  -4121.4646265488  -0.000002753895 0.00121100  0.00000865  0.0008080 0.0000
 26  -4121.4646259556   0.000000593191 0.00047414  0.00000365  0.0008914 0.0000
 27  -4121.4646287518  -0.000002796160 0.00015832  0.00000164  0.0003205 0.0000
 28  -4121.4646287809  -0.000000029176 0.00005908  0.00000093  0.0000485 0.0000
 29  -4121.4646290162  -0.000000235250 0.00002641  0.00000038  0.0000135 0.0000
                 **** Energy Check signals convergence ****

               *****************************************************
               *                     SUCCESS                       *
               *           SCF CONVERGED AFTER  30 CYCLES          *
               *****************************************************

Setting up the final grid:

General Integration Accuracy     IntAcc      ...  4.670
Radial Grid Type                 RadialGrid  ... Gauss-Chebyshev
Angular Grid (max. acc.)         AngularGrid ... Lebedev-302
Angular grid pruning method      GridPruning ... 3 (G Style)
Weight generation scheme         WeightScheme... Becke
Basis function cutoff            BFCut       ...    1.0000e-10
Integration weight cutoff        WCut        ...    1.0000e-14
Grids for H and He will be reduced by one unit

# of grid points (after initial pruning)     ... 251808 (   0.1 sec)
# of grid points (after weights+screening)   ... 216847 (   2.5 sec)
nearest neighbour list constructed           ...    0.0 sec
Grid point re-assignment to atoms done       ...    0.0 sec
Grid point division into batches done        ...    0.7 sec
Reduced shell lists constructed in    3.2 sec

Total number of grid points                  ...   216847
Total number of batches                      ...     3411
Average number of points per batch           ...       63
Average number of grid points per atom       ...     4425
Average number of shells per batch           ...    90.88 (36.94%)
Average number of basis functions per batch  ...   183.66 (34.39%)
Average number of large shells per batch     ...    53.03 (58.35%)
Average number of large basis fcns per batch ...   108.79 (59.24%)
Maximum spatial batch extension              ...  19.59, 19.70, 20.62 au
Average spatial batch extension              ...   2.24,  2.30,  2.24 au

Final grid set up in    5.8 sec
Final integration                            ... done (   4.0 sec)
Change in XC energy                          ...    -0.000370600
Integrated number of electrons               ...   259.999472791
Previous integrated no of electrons          ...   260.012273623

----------------
TOTAL SCF ENERGY
----------------

Total Energy       :        -4121.46499959 Eh         -112150.76427 eV

Components:
Nuclear Repulsion  :         4512.76105703 Eh          122798.47132 eV
Electronic Energy  :        -8634.22605662 Eh         -234949.23559 eV
One Electron Energy:       -14667.84673276 Eh         -399132.40110 eV
Two Electron Energy:         6033.62067614 Eh          164183.16551 eV

Virial components:
Potential Energy   :        -8223.96212790 Eh         -223785.38653 eV
Kinetic Energy     :         4102.49712831 Eh          111634.62226 eV
Virial Ratio       :            2.00462349


DFT components:
N(Alpha)           :      129.999736395490 electrons
N(Beta)            :      129.999736395490 electrons
N(Total)           :      259.999472790980 electrons
E(X)               :     -302.548255030656 Eh       
E(C)               :      -10.549485195008 Eh       
E(XC)              :     -313.097740225663 Eh       
DFET-embed. en.    :        0.000000000000 Eh       

---------------
SCF CONVERGENCE
---------------

  Last Energy change         ...    2.5897e-08  Tolerance :   1.0000e-06
  Last MAX-Density change    ...    1.1191e-05  Tolerance :   1.0000e-05
  Last RMS-Density change    ...    1.7482e-07  Tolerance :   1.0000e-06
  Last DIIS Error            ...    1.0799e-05  Tolerance :   1.0000e-06

             **** THE GBW FILE WAS UPDATED (moess.gbw) ****
             **** DENSITY FILE WAS UPDATED (moess.scfp.tmp) ****
             **** ENERGY FILE WAS UPDATED (moess.en.tmp) ****
----------------
ORBITAL ENERGIES
----------------

  NO   OCC          E(Eh)            E(eV) 
   0   2.0000    -254.784190     -6933.0303 
   1   2.0000     -88.126660     -2398.0483 
   2   2.0000     -88.123553     -2397.9638 
   3   2.0000     -88.111993     -2397.6492 
   4   2.0000     -88.042331     -2395.7536 
   5   2.0000     -88.040456     -2395.7026 
   6   2.0000     -29.534478      -803.6740 
   7   2.0000     -25.488547      -693.5786 
   8   2.0000     -25.487590      -693.5526 
   9   2.0000     -25.484212      -693.4607 
  10   2.0000     -14.060767      -382.6129 
  11   2.0000      -9.973824      -271.4016 
  12   2.0000      -9.973614      -271.3958 
  13   2.0000      -9.954308      -270.8705 
  14   2.0000      -9.954057      -270.8637 
  15   2.0000      -9.941442      -270.5204 
  16   2.0000      -9.937866      -270.4231 
  17   2.0000      -9.937834      -270.4222 
  18   2.0000      -9.935094      -270.3477 
  19   2.0000      -9.934546      -270.3327 
  20   2.0000      -9.933634      -270.3079 
  21   2.0000      -9.932778      -270.2846 
  22   2.0000      -9.932009      -270.2637 
  23   2.0000      -9.931899      -270.2607 
  24   2.0000      -9.920603      -269.9533 
  25   2.0000      -9.918644      -269.9000 
  26   2.0000      -9.913336      -269.7556 
  27   2.0000      -9.910962      -269.6910 
  28   2.0000      -9.909706      -269.6568 
  29   2.0000      -9.909496      -269.6511 
  30   2.0000      -9.907020      -269.5837 
  31   2.0000      -9.906677      -269.5744 
  32   2.0000      -7.717673      -210.0086 
  33   2.0000      -7.714825      -209.9311 
  34   2.0000      -7.703762      -209.6300 
  35   2.0000      -7.636092      -207.7886 
  36   2.0000      -7.634495      -207.7452 
  37   2.0000      -5.745130      -156.3329 
  38   2.0000      -5.742370      -156.2578 
  39   2.0000      -5.741933      -156.2459 
  40   2.0000      -5.738921      -156.1640 
  41   2.0000      -5.735830      -156.0799 
  42   2.0000      -5.732958      -156.0017 
  43   2.0000      -5.731462      -155.9610 
  44   2.0000      -5.728143      -155.8707 
  45   2.0000      -5.721409      -155.6874 
  46   2.0000      -5.664087      -154.1276 
  47   2.0000      -5.662367      -154.0808 
  48   2.0000      -5.658109      -153.9650 
  49   2.0000      -5.656536      -153.9222 
  50   2.0000      -5.655554      -153.8955 
  51   2.0000      -5.653957      -153.8520 
  52   2.0000      -3.221854       -87.6711 
  53   2.0000      -2.042229       -55.5719 
  54   2.0000      -2.040022       -55.5118 
  55   2.0000      -2.032974       -55.3200 
  56   2.0000      -0.888183       -24.1687 
  57   2.0000      -0.785707       -21.3802 
  58   2.0000      -0.781925       -21.2772 
  59   2.0000      -0.759515       -20.6675 
  60   2.0000      -0.745206       -20.2781 
  61   2.0000      -0.734755       -19.9937 
  62   2.0000      -0.730904       -19.8889 
  63   2.0000      -0.705980       -19.2107 
  64   2.0000      -0.686716       -18.6865 
  65   2.0000      -0.684600       -18.6289 
  66   2.0000      -0.670162       -18.2360 
  67   2.0000      -0.655441       -17.8355 
  68   2.0000      -0.634207       -17.2577 
  69   2.0000      -0.623170       -16.9573 
  70   2.0000      -0.607605       -16.5338 
  71   2.0000      -0.598938       -16.2979 
  72   2.0000      -0.590181       -16.0596 
  73   2.0000      -0.565545       -15.3893 
  74   2.0000      -0.561824       -15.2880 
  75   2.0000      -0.550701       -14.9853 
  76   2.0000      -0.531240       -14.4558 
  77   2.0000      -0.529015       -14.3952 
  78   2.0000      -0.512743       -13.9525 
  79   2.0000      -0.506380       -13.7793 
  80   2.0000      -0.479002       -13.0343 
  81   2.0000      -0.463617       -12.6157 
  82   2.0000      -0.453687       -12.3454 
  83   2.0000      -0.439458       -11.9582 
  84   2.0000      -0.429915       -11.6986 
  85   2.0000      -0.428199       -11.6519 
  86   2.0000      -0.415556       -11.3078 
  87   2.0000      -0.411727       -11.2037 
  88   2.0000      -0.407656       -11.0929 
  89   2.0000      -0.403740       -10.9863 
  90   2.0000      -0.398792       -10.8517 
  91   2.0000      -0.397276       -10.8104 
  92   2.0000      -0.395819       -10.7708 
  93   2.0000      -0.390074       -10.6144 
  94   2.0000      -0.388588       -10.5740 
  95   2.0000      -0.385831       -10.4990 
  96   2.0000      -0.377324       -10.2675 
  97   2.0000      -0.370826       -10.0907 
  98   2.0000      -0.367186        -9.9916 
  99   2.0000      -0.355453        -9.6724 
 100   2.0000      -0.352931        -9.6037 
 101   2.0000      -0.350559        -9.5392 
 102   2.0000      -0.350069        -9.5259 
 103   2.0000      -0.345338        -9.3971 
 104   2.0000      -0.336331        -9.1520 
 105   2.0000      -0.332609        -9.0508 
 106   2.0000      -0.330128        -8.9832 
 107   2.0000      -0.319379        -8.6908 
 108   2.0000      -0.309815        -8.4305 
 109   2.0000      -0.305721        -8.3191 
 110   2.0000      -0.302868        -8.2415 
 111   2.0000      -0.294548        -8.0151 
 112   2.0000      -0.292143        -7.9496 
 113   2.0000      -0.286885        -7.8065 
 114   2.0000      -0.285242        -7.7618 
 115   2.0000      -0.270100        -7.3498 
 116   2.0000      -0.250278        -6.8104 
 117   2.0000      -0.248524        -6.7627 
 118   2.0000      -0.247903        -6.7458 
 119   2.0000      -0.246561        -6.7093 
 120   2.0000      -0.233662        -6.3583 
 121   2.0000      -0.225129        -6.1261 
 122   2.0000      -0.222373        -6.0511 
 123   2.0000      -0.220656        -6.0043 
 124   2.0000      -0.197636        -5.3779 
 125   2.0000      -0.181483        -4.9384 
 126   2.0000      -0.166412        -4.5283 
 127   2.0000      -0.151559        -4.1241 
 128   2.0000      -0.150082        -4.0840 
 129   2.0000      -0.127991        -3.4828 
 130   0.0000      -0.080855        -2.2002 
 131   0.0000      -0.071221        -1.9380 
 132   0.0000      -0.064438        -1.7534 
 133   0.0000      -0.056552        -1.5389 
 134   0.0000      -0.049673        -1.3517 
 135   0.0000      -0.048153        -1.3103 
 136   0.0000      -0.032359        -0.8805 
 137   0.0000      -0.029356        -0.7988 
 138   0.0000      -0.002519        -0.0686 
 139   0.0000       0.000646         0.0176 
 140   0.0000       0.007849         0.2136 
 141   0.0000       0.021650         0.5891 
 142   0.0000       0.023676         0.6443 
 143   0.0000       0.033066         0.8998 
 144   0.0000       0.038459         1.0465 
 145   0.0000       0.047003         1.2790 
 146   0.0000       0.050605         1.3770 
 147   0.0000       0.056350         1.5334 
 148   0.0000       0.060796         1.6543 
 149   0.0000       0.067113         1.8262 
 150   0.0000       0.075019         2.0414 
 151   0.0000       0.079986         2.1765 
 152   0.0000       0.082277         2.2389 
 153   0.0000       0.087229         2.3736 
 154   0.0000       0.089762         2.4425 
 155   0.0000       0.093893         2.5549 
 156   0.0000       0.100478         2.7342 
 157   0.0000       0.105231         2.8635 
 158   0.0000       0.108430         2.9505 
 159   0.0000       0.111303         3.0287 
 160   0.0000       0.115512         3.1433 
 161   0.0000       0.116875         3.1803 
 162   0.0000       0.119379         3.2485 
 163   0.0000       0.125608         3.4180 
 164   0.0000       0.127869         3.4795 
 165   0.0000       0.135701         3.6926 
 166   0.0000       0.139834         3.8051 
 167   0.0000       0.140979         3.8362 
 168   0.0000       0.147403         4.0110 
 169   0.0000       0.148528         4.0417 
 170   0.0000       0.152722         4.1558 
 171   0.0000       0.162316         4.4168 
 172   0.0000       0.166929         4.5424 
 173   0.0000       0.189899         5.1674 
 174   0.0000       0.192573         5.2402 
 175   0.0000       0.203693         5.5428 
 176   0.0000       0.220699         6.0055 
 177   0.0000       0.230402         6.2696 
 178   0.0000       0.237721         6.4687 
 179   0.0000       0.247061         6.7229 
 180   0.0000       0.253011         6.8848 
 181   0.0000       0.256016         6.9666 
 182   0.0000       0.257297         7.0014 
 183   0.0000       0.261482         7.1153 
 184   0.0000       0.265520         7.2252 
 185   0.0000       0.272713         7.4209 
 186   0.0000       0.272849         7.4246 
 187   0.0000       0.297669         8.1000 
 188   0.0000       0.302565         8.2332 
 189   0.0000       0.313895         8.5415 
 190   0.0000       0.318930         8.6785 
 191   0.0000       0.326651         8.8886 
 192   0.0000       0.330941         9.0054 
 193   0.0000       0.336746         9.1633 
 194   0.0000       0.340210         9.2576 
 195   0.0000       0.348762         9.4903 
 196   0.0000       0.353798         9.6273 
 197   0.0000       0.363391         9.8884 
 198   0.0000       0.369510        10.0549 
 199   0.0000       0.370941        10.0938 
 200   0.0000       0.375079        10.2064 
 201   0.0000       0.379551        10.3281 
 202   0.0000       0.384482        10.4623 
 203   0.0000       0.388977        10.5846 
 204   0.0000       0.391322        10.6484 
 205   0.0000       0.394063        10.7230 
 206   0.0000       0.395999        10.7757 
 207   0.0000       0.403456        10.9786 
 208   0.0000       0.407415        11.0863 
 209   0.0000       0.409031        11.1303 
 210   0.0000       0.419252        11.4084 
 211   0.0000       0.422041        11.4843 
 212   0.0000       0.424010        11.5379 
 213   0.0000       0.429472        11.6865 
 214   0.0000       0.434278        11.8173 
 215   0.0000       0.436013        11.8645 
 216   0.0000       0.438093        11.9211 
 217   0.0000       0.444601        12.0982 
 218   0.0000       0.446057        12.1378 
 219   0.0000       0.452615        12.3163 
 220   0.0000       0.453960        12.3529 
 221   0.0000       0.454929        12.3793 
 222   0.0000       0.459390        12.5006 
 223   0.0000       0.471548        12.8315 
 224   0.0000       0.473466        12.8837 
 225   0.0000       0.483494        13.1565 
 226   0.0000       0.494923        13.4675 
 227   0.0000       0.500435        13.6175 
 228   0.0000       0.503702        13.7064 
 229   0.0000       0.509295        13.8586 
 230   0.0000       0.512334        13.9413 
 231   0.0000       0.515178        14.0187 
 232   0.0000       0.522308        14.2127 
 233   0.0000       0.527787        14.3618 
 234   0.0000       0.530551        14.4370 
 235   0.0000       0.535874        14.5819 
 236   0.0000       0.541208        14.7270 
 237   0.0000       0.548782        14.9331 
 238   0.0000       0.554436        15.0870 
 239   0.0000       0.555738        15.1224 
 240   0.0000       0.562512        15.3067 
 241   0.0000       0.566001        15.4017 
 242   0.0000       0.570140        15.5143 
 243   0.0000       0.572062        15.5666 
 244   0.0000       0.577029        15.7018 
 245   0.0000       0.580162        15.7870 
 246   0.0000       0.581758        15.8304 
 247   0.0000       0.588113        16.0034 
 248   0.0000       0.591263        16.0891 
 249   0.0000       0.594294        16.1716 
 250   0.0000       0.596157        16.2223 
 251   0.0000       0.597501        16.2588 
 252   0.0000       0.606580        16.5059 
 253   0.0000       0.608595        16.5607 
 254   0.0000       0.609726        16.5915 
 255   0.0000       0.613549        16.6955 
 256   0.0000       0.615883        16.7590 
 257   0.0000       0.618572        16.8322 
 258   0.0000       0.622665        16.9436 
 259   0.0000       0.625371        17.0172 
 260   0.0000       0.626389        17.0449 
 261   0.0000       0.630468        17.1559 
 262   0.0000       0.632050        17.1989 
 263   0.0000       0.636781        17.3277 
 264   0.0000       0.639816        17.4103 
 265   0.0000       0.643733        17.5169 
 266   0.0000       0.649809        17.6822 
 267   0.0000       0.653590        17.7851 
 268   0.0000       0.655686        17.8421 
 269   0.0000       0.660565        17.9749 
 270   0.0000       0.663277        18.0487 
 271   0.0000       0.665915        18.1205 
 272   0.0000       0.669781        18.2257 
 273   0.0000       0.670765        18.2524 
 274   0.0000       0.676361        18.4047 
 275   0.0000       0.679927        18.5018 
 276   0.0000       0.682985        18.5850 
 277   0.0000       0.687360        18.7040 
 278   0.0000       0.689375        18.7589 
 279   0.0000       0.691094        18.8056 
 280   0.0000       0.697298        18.9744 
 281   0.0000       0.698575        19.0092 
 282   0.0000       0.703441        19.1416 
 283   0.0000       0.706034        19.2122 
 284   0.0000       0.714540        19.4436 
 285   0.0000       0.719833        19.5876 
 286   0.0000       0.722829        19.6692 
 287   0.0000       0.733333        19.9550 
 288   0.0000       0.734746        19.9935 
 289   0.0000       0.743637        20.2354 
 290   0.0000       0.754632        20.5346 
 291   0.0000       0.755815        20.5668 
 292   0.0000       0.766681        20.8625 
 293   0.0000       0.770009        20.9530 
 294   0.0000       0.774926        21.0868 
 295   0.0000       0.777187        21.1483 
 296   0.0000       0.783725        21.3262 
 297   0.0000       0.796055        21.6618 
 298   0.0000       0.796350        21.6698 
 299   0.0000       0.807974        21.9861 
 300   0.0000       0.817186        22.2368 
 301   0.0000       0.828961        22.5572 
 302   0.0000       0.837651        22.7936 
 303   0.0000       0.839423        22.8419 
 304   0.0000       0.848462        23.0878 
 305   0.0000       0.850443        23.1417 
 306   0.0000       0.863554        23.4985 
 307   0.0000       0.889746        24.2112 
 308   0.0000       0.899687        24.4817 
 309   0.0000       0.905512        24.6402 
 310   0.0000       0.909746        24.7554 
 311   0.0000       0.922417        25.1003 
 312   0.0000       0.924989        25.1702 
 313   0.0000       0.933990        25.4152 
 314   0.0000       0.956478        26.0271 
 315   0.0000       0.958380        26.0788 
 316   0.0000       0.978038        26.6138 
 317   0.0000       0.985756        26.8238 
 318   0.0000       0.996565        27.1179 
 319   0.0000       1.011114        27.5138 
 320   0.0000       1.014087        27.5947 
 321   0.0000       1.030511        28.0416 
 322   0.0000       1.046957        28.4892 
 323   0.0000       1.054220        28.6868 
 324   0.0000       1.056051        28.7366 
 325   0.0000       1.063191        28.9309 
 326   0.0000       1.071484        29.1566 
 327   0.0000       1.079498        29.3746 
 328   0.0000       1.087434        29.5906 
 329   0.0000       1.091940        29.7132 
 330   0.0000       1.100143        29.9364 
 331   0.0000       1.103387        30.0247 
 332   0.0000       1.109562        30.1927 
 333   0.0000       1.124705        30.6048 
 334   0.0000       1.129320        30.7304 
 335   0.0000       1.138396        30.9773 
 336   0.0000       1.148591        31.2548 
 337   0.0000       1.152567        31.3630 
 338   0.0000       1.165637        31.7186 
 339   0.0000       1.176984        32.0274 
 340   0.0000       1.183823        32.2135 
 341   0.0000       1.186468        32.2854 
 342   0.0000       1.192700        32.4550 
 343   0.0000       1.196541        32.5595 
 344   0.0000       1.201891        32.7051 
 345   0.0000       1.205184        32.7947 
 346   0.0000       1.208694        32.8902 
 347   0.0000       1.215888        33.0860 
 348   0.0000       1.220054        33.1994 
 349   0.0000       1.232966        33.5507 
 350   0.0000       1.235924        33.6312 
 351   0.0000       1.241101        33.7721 
 352   0.0000       1.242009        33.7968 
 353   0.0000       1.254241        34.1296 
 354   0.0000       1.280307        34.8389 
 355   0.0000       1.281888        34.8819 
 356   0.0000       1.291096        35.1325 
 357   0.0000       1.294777        35.2327 
 358   0.0000       1.298728        35.3402 
 359   0.0000       1.315674        35.8013 
 360   0.0000       1.326886        36.1064 
 361   0.0000       1.339564        36.4514 
 362   0.0000       1.350084        36.7377 
 363   0.0000       1.357953        36.9518 
 364   0.0000       1.376459        37.4553 
 365   0.0000       1.419104        38.6158 
 366   0.0000       1.425656        38.7941 
 367   0.0000       1.437967        39.1291 
 368   0.0000       1.450031        39.4573 
 369   0.0000       1.451920        39.5087 
 370   0.0000       1.455807        39.6145 
 371   0.0000       1.486120        40.4394 
 372   0.0000       1.494535        40.6684 
 373   0.0000       1.513712        41.1902 
 374   0.0000       1.519883        41.3581 
 375   0.0000       1.527815        41.5740 
 376   0.0000       1.537752        41.8444 
 377   0.0000       1.557253        42.3750 
 378   0.0000       1.597906        43.4812 
 379   0.0000       1.602918        43.6176 
 380   0.0000       1.607939        43.7542 
 381   0.0000       1.613929        43.9172 
 382   0.0000       1.621481        44.1227 
 383   0.0000       1.630514        44.3685 
 384   0.0000       1.637833        44.5677 
 385   0.0000       1.645462        44.7753 
 386   0.0000       1.648808        44.8663 
 387   0.0000       1.651475        44.9389 
 388   0.0000       1.652996        44.9803 
 389   0.0000       1.654263        45.0148 
 390   0.0000       1.659859        45.1671 
 391   0.0000       1.662793        45.2469 
 392   0.0000       1.671396        45.4810 
 393   0.0000       1.673598        45.5409 
 394   0.0000       1.682476        45.7825 
 395   0.0000       1.685044        45.8524 
 396   0.0000       1.699938        46.2577 
 397   0.0000       1.703629        46.3581 
 398   0.0000       1.707946        46.4756 
 399   0.0000       1.708800        46.4988 
 400   0.0000       1.713973        46.6396 
 401   0.0000       1.720775        46.8247 
 402   0.0000       1.728923        47.0464 
 403   0.0000       1.734417        47.1959 
 404   0.0000       1.734537        47.1992 
 405   0.0000       1.739987        47.3475 
 406   0.0000       1.745306        47.4922 
 407   0.0000       1.749915        47.6176 
 408   0.0000       1.755151        47.7601 
 409   0.0000       1.757802        47.8322 
 410   0.0000       1.771136        48.1951 
 411   0.0000       1.785094        48.5749 
 412   0.0000       1.792717        48.7823 
 413   0.0000       1.814966        49.3877 
 414   0.0000       1.820242        49.5313 
 415   0.0000       1.823288        49.6142 
 416   0.0000       1.830721        49.8165 
 417   0.0000       1.842569        50.1388 
 418   0.0000       1.860094        50.6157 
 419   0.0000       1.860746        50.6335 
 420   0.0000       1.867918        50.8286 
 421   0.0000       1.871293        50.9205 
 422   0.0000       1.876057        51.0501 
 423   0.0000       1.885802        51.3153 
 424   0.0000       1.887882        51.3719 
 425   0.0000       1.889935        51.4278 
 426   0.0000       1.893031        51.5120 
 427   0.0000       1.895131        51.5691 
 428   0.0000       1.899074        51.6764 
 429   0.0000       1.903253        51.7902 
 430   0.0000       1.904354        51.8201 
 431   0.0000       1.908511        51.9332 
 432   0.0000       1.913908        52.0801 
 433   0.0000       1.916088        52.1394 
 434   0.0000       1.921280        52.2807 
 435   0.0000       1.950462        53.0748 
 436   0.0000       1.971816        53.6558 
 437   0.0000       1.977039        53.7980 
 438   0.0000       1.990312        54.1591 
 439   0.0000       2.004105        54.5345 
 440   0.0000       2.006449        54.5982 
 441   0.0000       2.032786        55.3149 
 442   0.0000       2.047953        55.7276 
 443   0.0000       2.057414        55.9851 
 444   0.0000       2.071525        56.3691 
 445   0.0000       2.078825        56.5677 
 446   0.0000       2.081886        56.6510 
 447   0.0000       2.101474        57.1840 
 448   0.0000       2.103225        57.2317 
 449   0.0000       2.113765        57.5185 
 450   0.0000       2.125559        57.8394 
 451   0.0000       2.134728        58.0889 
 452   0.0000       2.141816        58.2818 
 453   0.0000       2.156769        58.6887 
 454   0.0000       2.159827        58.7719 
 455   0.0000       2.181742        59.3682 
 456   0.0000       2.187808        59.5333 
 457   0.0000       2.202472        59.9323 
 458   0.0000       2.202935        59.9449 
 459   0.0000       2.207356        60.0652 
 460   0.0000       2.219421        60.3935 
 461   0.0000       2.226595        60.5887 
 462   0.0000       2.231522        60.7228 
 463   0.0000       2.233429        60.7747 
 464   0.0000       2.240188        60.9586 
 465   0.0000       2.253083        61.3095 
 466   0.0000       2.256138        61.3926 
 467   0.0000       2.274659        61.8966 
 468   0.0000       2.290281        62.3217 
 469   0.0000       2.302486        62.6538 
 470   0.0000       2.326434        63.3055 
 471   0.0000       2.338066        63.6220 
 472   0.0000       2.349285        63.9273 
 473   0.0000       2.359496        64.2051 
 474   0.0000       2.362076        64.2754 
 475   0.0000       2.365949        64.3807 
 476   0.0000       2.369356        64.4734 
 477   0.0000       2.370764        64.5118 
 478   0.0000       2.378266        64.7159 
 479   0.0000       2.401126        65.3380 
 480   0.0000       2.431608        66.1674 
 481   0.0000       2.434272        66.2399 
 482   0.0000       2.459817        66.9350 
 483   0.0000       2.521901        68.6244 
 484   0.0000       2.528945        68.8161 
 485   0.0000       2.531837        68.8948 
 486   0.0000       2.537377        69.0455 
 487   0.0000       2.539156        69.0939 
 488   0.0000       2.552106        69.4463 
 489   0.0000       2.553553        69.4857 
 490   0.0000       2.554348        69.5074 
 491   0.0000       2.585246        70.3481 
 492   0.0000       2.619301        71.2748 
 493   0.0000       2.624590        71.4187 
 494   0.0000       2.656030        72.2742 
 495   0.0000       2.656467        72.2861 
 496   0.0000       2.659357        72.3648 
 497   0.0000       2.667732        72.5927 
 498   0.0000       2.706869        73.6577 
 499   0.0000       2.726967        74.2045 
 500   0.0000       2.729560        74.2751 
 501   0.0000       2.731528        74.3286 
 502   0.0000       2.748971        74.8033 
 503   0.0000       2.749965        74.8304 
 504   0.0000       2.753649        74.9306 
 505   0.0000       2.757130        75.0253 
 506   0.0000       2.768812        75.3432 
 507   0.0000       2.803627        76.2906 
 508   0.0000       2.811171        76.4958 
 509   0.0000       2.828789        76.9753 
 510   0.0000       2.836077        77.1736 
 511   0.0000       2.860874        77.8483 
 512   0.0000       2.862707        77.8982 
 513   0.0000       2.885017        78.5053 
 514   0.0000       2.885203        78.5104 
 515   0.0000       2.890447        78.6531 
 516   0.0000       2.919357        79.4397 
 517   0.0000       2.970707        80.8370 
 518   0.0000       2.980758        81.1105 
 519   0.0000       2.985420        81.2374 
 520   0.0000       3.009570        81.8946 
 521   0.0000       3.074999        83.6750 
 522   0.0000       3.077830        83.7520 
 523   0.0000       3.227231        87.8174 
 524   0.0000       3.457622        94.0867 
 525   0.0000       3.459597        94.1404 
 526   0.0000       3.485559        94.8469 
 527   0.0000       4.053321       110.2965 
 528   0.0000       4.055765       110.3630 
 529   0.0000       4.058873       110.4475 
 530   0.0000       4.074966       110.8855 
 531   0.0000       4.095792       111.4522 
 532   0.0000       4.114689       111.9664 
 533   0.0000       4.167430       113.4015 

                    ********************************
                    * MULLIKEN POPULATION ANALYSIS *
                    ********************************

-----------------------
MULLIKEN ATOMIC CHARGES
-----------------------
   0 Fe:   -0.042071
   1 S :    0.004499
   2 C :   -0.125863
   3 S :    0.075756
   4 S :   -0.184193
   5 S :   -0.183616
   6 S :    0.057081
   7 C :    0.021675
   8 C :   -0.012634
   9 C :    0.013042
  10 C :   -0.094464
  11 C :    0.013066
  12 C :   -0.025442
  13 C :    0.017056
  14 C :   -0.099014
  15 C :   -0.027516
  16 C :    0.019373
  17 C :   -0.013069
  18 C :    0.014840
  19 C :   -0.024128
  20 C :   -0.005858
  21 C :    0.022785
  22 C :    0.028748
  23 N :   -0.076453
  24 C :   -0.006240
  25 C :   -0.007252
  26 C :    0.055314
  27 H :   -0.007609
  28 H :   -0.012745
  29 H :   -0.014786
  30 H :   -0.014096
  31 H :   -0.011025
  32 H :   -0.007179
  33 H :   -0.011143
  34 H :   -0.014588
  35 H :    0.060299
  36 H :    0.102541
  37 H :    0.052862
  38 H :    0.099976
  39 H :   -0.002022
  40 H :   -0.002306
  41 H :    0.011081
  42 H :    0.075918
  43 C :   -0.112931
  44 H :    0.092830
  45 H :    0.068632
  46 H :    0.076472
  47 H :    0.064500
  48 H :    0.089896
Sum of atomic charges:   -0.0000000

--------------------------------
MULLIKEN REDUCED ORBITAL CHARGES
--------------------------------
  0 Fes       :     6.562859  s :     6.562859
      pz      :     4.260818  p :    12.779445
      px      :     4.276244
      py      :     4.242383
      dz2     :     1.480095  d :     6.698867
      dxz     :     0.777320
      dyz     :     1.821888
      dx2y2   :     0.942828
      dxy     :     1.676735
      f0      :     0.000058  f :     0.000900
      f+1     :     0.000162
      f-1     :     0.000130
      f+2     :     0.000209
      f-2     :     0.000060
      f+3     :     0.000074
      f-3     :     0.000209
  1 S s       :     5.830517  s :     5.830517
      pz      :     3.573490  p :    10.051342
      px      :     3.099459
      py      :     3.378394
      dz2     :     0.014338  d :     0.113642
      dxz     :     0.019746
      dyz     :     0.023148
      dx2y2   :     0.021897
      dxy     :     0.034513
  2 C s       :     3.090583  s :     3.090583
      pz      :     1.060577  p :     3.010697
      px      :     0.924575
      py      :     1.025544
      dz2     :     0.006224  d :     0.024584
      dxz     :     0.004704
      dyz     :     0.003094
      dx2y2   :     0.005943
      dxy     :     0.004619
  3 S s       :     5.825160  s :     5.825160
      pz      :     3.523585  p :     9.978743
      px      :     3.219026
      py      :     3.236133
      dz2     :     0.017045  d :     0.120341
      dxz     :     0.025264
      dyz     :     0.018900
      dx2y2   :     0.036096
      dxy     :     0.023037
  4 S s       :     5.852144  s :     5.852144
      pz      :     3.476317  p :    10.267692
      px      :     3.084641
      py      :     3.706734
      dz2     :     0.010482  d :     0.064356
      dxz     :     0.019458
      dyz     :     0.005919
      dx2y2   :     0.014849
      dxy     :     0.013649
  5 S s       :     5.861687  s :     5.861687
      pz      :     3.455745  p :    10.259549
      px      :     3.109599
      py      :     3.694206
      dz2     :     0.009693  d :     0.062380
      dxz     :     0.020287
      dyz     :     0.006537
      dx2y2   :     0.013305
      dxy     :     0.012558
  6 S s       :     5.830252  s :     5.830252
      pz      :     3.470260  p :     9.991055
      px      :     3.218425
      py      :     3.302369
      dz2     :     0.016468  d :     0.121613
      dxz     :     0.023387
      dyz     :     0.024178
      dx2y2   :     0.031929
      dxy     :     0.025651
  7 C s       :     3.165128  s :     3.165128
      pz      :     0.920103  p :     2.779822
      px      :     0.876214
      py      :     0.983505
      dz2     :     0.008149  d :     0.033375
      dxz     :     0.011774
      dyz     :     0.005601
      dx2y2   :     0.004213
      dxy     :     0.003638
  8 C s       :     3.169541  s :     3.169541
      pz      :     0.929387  p :     2.810963
      px      :     0.856574
      py      :     1.025001
      dz2     :     0.008520  d :     0.032131
      dxz     :     0.011122
      dyz     :     0.005202
      dx2y2   :     0.004033
      dxy     :     0.003253
  9 C s       :     3.234570  s :     3.234570
      pz      :     0.810451  p :     2.719086
      px      :     0.923472
      py      :     0.985162
      dz2     :     0.008989  d :     0.033302
      dxz     :     0.009034
      dyz     :     0.002301
      dx2y2   :     0.005451
      dxy     :     0.007526
 10 C s       :     3.055793  s :     3.055793
      pz      :     1.027263  p :     2.999197
      px      :     0.866215
      py      :     1.105719
      dz2     :     0.009720  d :     0.039474
      dxz     :     0.013776
      dyz     :     0.005745
      dx2y2   :     0.005830
      dxy     :     0.004404
 11 C s       :     3.031670  s :     3.031670
      pz      :     1.007968  p :     2.911278
      px      :     0.915963
      py      :     0.987347
      dz2     :     0.010874  d :     0.043986
      dxz     :     0.012414
      dyz     :     0.006760
      dx2y2   :     0.006256
      dxy     :     0.007682
 12 C s       :     3.250124  s :     3.250124
      pz      :     0.829189  p :     2.743354
      px      :     0.911705
      py      :     1.002460
      dz2     :     0.008858  d :     0.031964
      dxz     :     0.009455
      dyz     :     0.002374
      dx2y2   :     0.005365
      dxy     :     0.005912
 13 C s       :     3.030311  s :     3.030311
      pz      :     1.010481  p :     2.908844
      px      :     0.915716
      py      :     0.982647
      dz2     :     0.010987  d :     0.043789
      dxz     :     0.012149
      dyz     :     0.007176
      dx2y2   :     0.006311
      dxy     :     0.007166
 14 C s       :     3.059907  s :     3.059907
      pz      :     1.034559  p :     2.999408
      px      :     0.879483
      py      :     1.085366
      dz2     :     0.009778  d :     0.039699
      dxz     :     0.013122
      dyz     :     0.006651
      dx2y2   :     0.005445
      dxy     :     0.004703
 15 C s       :     3.252182  s :     3.252182
      pz      :     0.825144  p :     2.743466
      px      :     0.918875
      py      :     0.999447
      dz2     :     0.009095  d :     0.031868
      dxz     :     0.008962
      dyz     :     0.002653
      dx2y2   :     0.005429
      dxy     :     0.005729
 16 C s       :     3.163960  s :     3.163960
      pz      :     0.925812  p :     2.783449
      px      :     0.881655
      py      :     0.975981
      dz2     :     0.008427  d :     0.033218
      dxz     :     0.011248
      dyz     :     0.006219
      dx2y2   :     0.003755
      dxy     :     0.003569
 17 C s       :     3.168480  s :     3.168480
      pz      :     0.921635  p :     2.812354
      px      :     0.873759
      py      :     1.016960
      dz2     :     0.008279  d :     0.032235
      dxz     :     0.011166
      dyz     :     0.005510
      dx2y2   :     0.003826
      dxy     :     0.003455
 18 C s       :     3.230730  s :     3.230730
      pz      :     0.812064  p :     2.721073
      px      :     0.921857
      py      :     0.987152
      dz2     :     0.009097  d :     0.033356
      dxz     :     0.008789
      dyz     :     0.002608
      dx2y2   :     0.005952
      dxy     :     0.006911
 19 C s       :     3.032307  s :     3.032307
      pz      :     1.053053  p :     2.960315
      px      :     1.031201
      py      :     0.876061
      dz2     :     0.005041  d :     0.031506
      dxz     :     0.007853
      dyz     :     0.006804
      dx2y2   :     0.005798
      dxy     :     0.006010
 20 C s       :     3.028853  s :     3.028853
      pz      :     1.036439  p :     2.945498
      px      :     1.029782
      py      :     0.879277
      dz2     :     0.003991  d :     0.031507
      dxz     :     0.007843
      dyz     :     0.008134
      dx2y2   :     0.005364
      dxy     :     0.006174
 21 C s       :     3.071207  s :     3.071207
      pz      :     0.964333  p :     2.850361
      px      :     0.958219
      py      :     0.927810
      dz2     :     0.011861  d :     0.055646
      dxz     :     0.008710
      dyz     :     0.015970
      dx2y2   :     0.008799
      dxy     :     0.010305
 22 C s       :     3.069507  s :     3.069507
      pz      :     0.961273  p :     2.845827
      px      :     0.960267
      py      :     0.924287
      dz2     :     0.011889  d :     0.055918
      dxz     :     0.008370
      dyz     :     0.015735
      dx2y2   :     0.009271
      dxy     :     0.010652
 23 N s       :     3.439902  s :     3.439902
      pz      :     1.094767  p :     3.609723
      px      :     1.187952
      py      :     1.327004
      dz2     :     0.004593  d :     0.026827
      dxz     :     0.003893
      dyz     :     0.009100
      dx2y2   :     0.002902
      dxy     :     0.006338
 24 C s       :     3.187402  s :     3.187402
      pz      :     0.890245  p :     2.787274
      px      :     0.955347
      py      :     0.941682
      dz2     :     0.006125  d :     0.031564
      dxz     :     0.004107
      dyz     :     0.008515
      dx2y2   :     0.006367
      dxy     :     0.006451
 25 C s       :     3.185563  s :     3.185563
      pz      :     0.888232  p :     2.790059
      px      :     0.954944
      py      :     0.946882
      dz2     :     0.006102  d :     0.031630
      dxz     :     0.004064
      dyz     :     0.008396
      dx2y2   :     0.006492
      dxy     :     0.006576
 26 C s       :     3.138120  s :     3.138120
      pz      :     0.962022  p :     2.773279
      px      :     0.963561
      py      :     0.847696
      dz2     :     0.008501  d :     0.033287
      dxz     :     0.005378
      dyz     :     0.007659
      dx2y2   :     0.007071
      dxy     :     0.004679
 27 H s       :     0.985228  s :     0.985228
      pz      :     0.006752  p :     0.022380
      px      :     0.010597
      py      :     0.005031
 28 H s       :     0.990010  s :     0.990010
      pz      :     0.005627  p :     0.022734
      px      :     0.011347
      py      :     0.005761
 29 H s       :     0.992137  s :     0.992137
      pz      :     0.013533  p :     0.022649
      px      :     0.003835
      py      :     0.005281
 30 H s       :     0.991524  s :     0.991524
      pz      :     0.013572  p :     0.022572
      px      :     0.003781
      py      :     0.005219
 31 H s       :     0.988434  s :     0.988434
      pz      :     0.013771  p :     0.022591
      px      :     0.003810
      py      :     0.005009
 32 H s       :     0.984816  s :     0.984816
      pz      :     0.006281  p :     0.022363
      px      :     0.010534
      py      :     0.005548
 33 H s       :     0.988448  s :     0.988448
      pz      :     0.006187  p :     0.022695
      px      :     0.010592
      py      :     0.005915
 34 H s       :     0.991930  s :     0.991930
      pz      :     0.013554  p :     0.022657
      px      :     0.003940
      py      :     0.005163
 35 H s       :     0.917932  s :     0.917932
      pz      :     0.005432  p :     0.021769
      px      :     0.010834
      py      :     0.005503
 36 H s       :     0.874313  s :     0.874313
      pz      :     0.008971  p :     0.023146
      px      :     0.009886
      py      :     0.004289
 37 H s       :     0.925258  s :     0.925258
      pz      :     0.006267  p :     0.021880
      px      :     0.010299
      py      :     0.005313
 38 H s       :     0.876747  s :     0.876747
      pz      :     0.007959  p :     0.023277
      px      :     0.010639
      py      :     0.004678
 39 H s       :     0.979245  s :     0.979245
      pz      :     0.009409  p :     0.022777
      px      :     0.006860
      py      :     0.006508
 40 H s       :     0.979547  s :     0.979547
      pz      :     0.009850  p :     0.022759
      px      :     0.007156
      py      :     0.005753
 41 H s       :     0.966330  s :     0.966330
      pz      :     0.004052  p :     0.022589
      px      :     0.004641
      py      :     0.013896
 42 H s       :     0.901193  s :     0.901193
      pz      :     0.012874  p :     0.022889
      px      :     0.004818
      py      :     0.005197
 43 C s       :     3.084848  s :     3.084848
      pz      :     0.984923  p :     3.003232
      px      :     1.039177
      py      :     0.979133
      dz2     :     0.006961  d :     0.024851
      dxz     :     0.004102
      dyz     :     0.004238
      dx2y2   :     0.006135
      dxy     :     0.003414
 44 H s       :     0.883149  s :     0.883149
      pz      :     0.008201  p :     0.024021
      px      :     0.007495
      py      :     0.008325
 45 H s       :     0.908708  s :     0.908708
      pz      :     0.005968  p :     0.022661
      px      :     0.004173
      py      :     0.012519
 46 H s       :     0.900791  s :     0.900791
      pz      :     0.011966  p :     0.022737
      px      :     0.005699
      py      :     0.005071
 47 H s       :     0.912816  s :     0.912816
      pz      :     0.005373  p :     0.022684
      px      :     0.004960
      py      :     0.012352
 48 H s       :     0.886849  s :     0.886849
      pz      :     0.004555  p :     0.023255
      px      :     0.012681
      py      :     0.006020


                     *******************************
                     * LOEWDIN POPULATION ANALYSIS *
                     *******************************

----------------------
LOEWDIN ATOMIC CHARGES
----------------------
   0 Fe:   -0.654066
   1 S :    0.475850
   2 C :   -0.162221
   3 S :    0.544695
   4 S :    0.070422
   5 S :    0.053522
   6 S :    0.543089
   7 C :   -0.026094
   8 C :   -0.056465
   9 C :   -0.040168
  10 C :   -0.209384
  11 C :   -0.175505
  12 C :   -0.048808
  13 C :   -0.174570
  14 C :   -0.206840
  15 C :   -0.045997
  16 C :   -0.025522
  17 C :   -0.055114
  18 C :   -0.042589
  19 C :   -0.131369
  20 C :   -0.126793
  21 C :    0.011063
  22 C :    0.011230
  23 N :    0.043304
  24 C :   -0.033308
  25 C :   -0.033153
  26 C :   -0.009989
  27 H :    0.029248
  28 H :    0.026686
  29 H :    0.026629
  30 H :    0.027906
  31 H :    0.029154
  32 H :    0.029625
  33 H :    0.027262
  34 H :    0.025942
  35 H :    0.036049
  36 H :    0.045134
  37 H :    0.033056
  38 H :    0.041356
  39 H :    0.037150
  40 H :    0.037188
  41 H :    0.037207
  42 H :    0.025547
  43 C :   -0.166065
  44 H :    0.033949
  45 H :    0.029348
  46 H :    0.028976
  47 H :    0.026756
  48 H :    0.036679

-------------------------------
LOEWDIN REDUCED ORBITAL CHARGES
-------------------------------
  0 Fes       :     6.538149  s :     6.538149
      pz      :     4.394989  p :    13.132007
      px      :     4.395769
      py      :     4.341249
      dz2     :     1.527591  d :     6.982353
      dxz     :     0.876609
      dyz     :     1.847147
      dx2y2   :     1.024372
      dxy     :     1.706635
      f0      :     0.000098  f :     0.001557
      f+1     :     0.000285
      f-1     :     0.000224
      f+2     :     0.000380
      f-2     :     0.000101
      f+3     :     0.000116
      f-3     :     0.000353
  1 S s       :     5.508361  s :     5.508361
      pz      :     3.540906  p :     9.881909
      px      :     3.048310
      py      :     3.292693
      dz2     :     0.016509  d :     0.133881
      dxz     :     0.022770
      dyz     :     0.027210
      dx2y2   :     0.025188
      dxy     :     0.042204
  2 C s       :     2.908351  s :     2.908351
      pz      :     1.104780  p :     3.191086
      px      :     1.001831
      py      :     1.084475
      dz2     :     0.016426  d :     0.062785
      dxz     :     0.011979
      dyz     :     0.007580
      dx2y2   :     0.015145
      dxy     :     0.011655
  3 S s       :     5.484828  s :     5.484828
      pz      :     3.458434  p :     9.820891
      px      :     3.163646
      py      :     3.198811
      dz2     :     0.020513  d :     0.149586
      dxz     :     0.032897
      dyz     :     0.023201
      dx2y2   :     0.046499
      dxy     :     0.026477
  4 S s       :     5.602762  s :     5.602762
      pz      :     3.480415  p :    10.245630
      px      :     3.086749
      py      :     3.678466
      dz2     :     0.012327  d :     0.081186
      dxz     :     0.025513
      dyz     :     0.006174
      dx2y2   :     0.021004
      dxy     :     0.016168
  5 S s       :     5.614928  s :     5.614928
      pz      :     3.464727  p :    10.252673
      px      :     3.113815
      py      :     3.674130
      dz2     :     0.011100  d :     0.078877
      dxz     :     0.026909
      dyz     :     0.007131
      dx2y2   :     0.018510
      dxy     :     0.015228
  6 S s       :     5.484037  s :     5.484037
      pz      :     3.401188  p :     9.822187
      px      :     3.159057
      py      :     3.261941
      dz2     :     0.019520  d :     0.150687
      dxz     :     0.030335
      dyz     :     0.030747
      dx2y2   :     0.039955
      dxy     :     0.030130
  7 C s       :     2.865088  s :     2.865088
      pz      :     1.056476  p :     3.071029
      px      :     1.047923
      py      :     0.966629
      dz2     :     0.024773  d :     0.089977
      dxz     :     0.033685
      dyz     :     0.012419
      dx2y2   :     0.011403
      dxy     :     0.007697
[...]
      dz2     :     0.028266  d :     0.101030
      dxz     :     0.036596
      dyz     :     0.012434
      dx2y2   :     0.014422
      dxy     :     0.009313
 11 C s       :     2.921043  s :     2.921043
      pz      :     1.086197  p :     3.144513
      px      :     1.061859
      py      :     0.996457
      dz2     :     0.031000  d :     0.109949
      dxz     :     0.033794
      dyz     :     0.014858
      dx2y2   :     0.014805
      dxy     :     0.015492
 12 C s       :     2.868797  s :     2.868797
      pz      :     1.039529  p :     3.092188
      px      :     1.057864
      py      :     0.994795
      dz2     :     0.024795  d :     0.087824
      dxz     :     0.029028
      dyz     :     0.004530
      dx2y2   :     0.016245
      dxy     :     0.013225
 13 C s       :     2.921650  s :     2.921650
      pz      :     1.086563  p :     3.143391
      px      :     1.059194
      py      :     0.997634
      dz2     :     0.031646  d :     0.109529
      dxz     :     0.032760
      dyz     :     0.015845
      dx2y2   :     0.014359
      dxy     :     0.014919
 14 C s       :     2.920161  s :     2.920161
      pz      :     1.076899  p :     3.184796
      px      :     1.025544
      py      :     1.082354
      dz2     :     0.028915  d :     0.101883
      dxz     :     0.035170
      dyz     :     0.014505
      dx2y2   :     0.012973
      dxy     :     0.010320
 15 C s       :     2.869441  s :     2.869441
      pz      :     1.041342  p :     3.089111
      px      :     1.052803
      py      :     0.994966
      dz2     :     0.025453  d :     0.087444
      dxz     :     0.027446
      dyz     :     0.005492
      dx2y2   :     0.015387
      dxy     :     0.013666
 16 C s       :     2.865570  s :     2.865570
      pz      :     1.058712  p :     3.070431
      px      :     1.041842
      py      :     0.969877
      dz2     :     0.025676  d :     0.089521
      dxz     :     0.032276
      dyz     :     0.014049
      dx2y2   :     0.009662
      dxy     :     0.007858
 17 C s       :     2.862038  s :     2.862038
      pz      :     1.055596  p :     3.105331
      px      :     1.037519
      py      :     1.012217
      dz2     :     0.025452  d :     0.087746
      dxz     :     0.032208
      dyz     :     0.012554
      dx2y2   :     0.009757
      dxy     :     0.007774
 18 C s       :     2.867331  s :     2.867331
      pz      :     1.039547  p :     3.083678
      px      :     1.060322
      py      :     0.983809
      dz2     :     0.025508  d :     0.091580
      dxz     :     0.027120
      dyz     :     0.005606
      dx2y2   :     0.016775
      dxy     :     0.016571
 19 C s       :     2.902068  s :     2.902068
      pz      :     1.069666  p :     3.148639
      px      :     1.085487
      py      :     0.993486
      dz2     :     0.012448  d :     0.080661
      dxz     :     0.021042
      dyz     :     0.017683
      dx2y2   :     0.014315
      dxy     :     0.015175
 20 C s       :     2.902244  s :     2.902244
      pz      :     1.061473  p :     3.143710
      px      :     1.085416
      py      :     0.996822
      dz2     :     0.009007  d :     0.080839
      dxz     :     0.021062
      dyz     :     0.021961
      dx2y2   :     0.013292
      dxy     :     0.015516
 21 C s       :     2.853136  s :     2.853136
      pz      :     0.978197  p :     2.997419
      px      :     0.956024
      py      :     1.063198
      dz2     :     0.027771  d :     0.138383
      dxz     :     0.019465
      dyz     :     0.043637
      dx2y2   :     0.022608
      dxy     :     0.024902
 22 C s       :     2.852399  s :     2.852399
      pz      :     0.980313  p :     2.997132
      px      :     0.957755
      py      :     1.059064
      dz2     :     0.027456  d :     0.139239
      dxz     :     0.018785
      dyz     :     0.043206
      dx2y2   :     0.023981
      dxy     :     0.025811
 23 N s       :     3.152171  s :     3.152171
      pz      :     1.177674  p :     3.742784
      px      :     1.214266
      py      :     1.350844
      dz2     :     0.011343  d :     0.061741
      dxz     :     0.010598
      dyz     :     0.021212
      dx2y2   :     0.006290
      dxy     :     0.012300
 24 C s       :     2.861760  s :     2.861760
      pz      :     1.028343  p :     3.083009
      px      :     1.004883
      py      :     1.049783
      dz2     :     0.016283  d :     0.088539
      dxz     :     0.010830
      dyz     :     0.025601
      dx2y2   :     0.018826
      dxy     :     0.016999
 25 C s       :     2.861670  s :     2.861670
      pz      :     1.028317  p :     3.082785
      px      :     1.003719
      py      :     1.050748
      dz2     :     0.016230  d :     0.088698
      dxz     :     0.010533
      dyz     :     0.025491
      dx2y2   :     0.019151
      dxy     :     0.017293
 26 C s       :     2.861684  s :     2.861684
      pz      :     1.030564  p :     3.058640
      px      :     0.985317
      py      :     1.042759
      dz2     :     0.021631  d :     0.089666
      dxz     :     0.015201
      dyz     :     0.022623
      dx2y2   :     0.018096
      dxy     :     0.012115
 27 H s       :     0.902813  s :     0.902813
      pz      :     0.020882  p :     0.067939
      px      :     0.032480
      py      :     0.014577
 28 H s       :     0.904206  s :     0.904206
      pz      :     0.017604  p :     0.069108
      px      :     0.034572
      py      :     0.016933
 29 H s       :     0.904588  s :     0.904588
      pz      :     0.041957  p :     0.068784
      px      :     0.011707
      py      :     0.015120
 30 H s       :     0.902900  s :     0.902900
      pz      :     0.042297  p :     0.069194
      px      :     0.011266
      py      :     0.015631
 31 H s       :     0.901663  s :     0.901663
      pz      :     0.042891  p :     0.069183
      px      :     0.011322
      py      :     0.014970
 32 H s       :     0.902440  s :     0.902440
      pz      :     0.019504  p :     0.067935
      px      :     0.032226
      py      :     0.016205
 33 H s       :     0.903663  s :     0.903663
      pz      :     0.019338  p :     0.069076
      px      :     0.032261
      py      :     0.017477
 34 H s       :     0.905223  s :     0.905223
      pz      :     0.042148  p :     0.068835
      px      :     0.011937
      py      :     0.014749
 35 H s       :     0.892387  s :     0.892387
      pz      :     0.018046  p :     0.071564
      px      :     0.032892
      py      :     0.020626
 36 H s       :     0.880093  s :     0.880093
      pz      :     0.030360  p :     0.074773
      px      :     0.030192
      py      :     0.014221
 37 H s       :     0.895436  s :     0.895436
      pz      :     0.021111  p :     0.071508
      px      :     0.031163
      py      :     0.019233
 38 H s       :     0.883160  s :     0.883160
      pz      :     0.027236  p :     0.075484
      px      :     0.033005
      py      :     0.015243
 39 H s       :     0.893410  s :     0.893410
      pz      :     0.029192  p :     0.069440
      px      :     0.020575
      py      :     0.019672
 40 H s       :     0.893508  s :     0.893508
      pz      :     0.030467  p :     0.069304
      px      :     0.021318
      py      :     0.017518
 41 H s       :     0.893911  s :     0.893911
      pz      :     0.012551  p :     0.068883
      px      :     0.013717
      py      :     0.042615
 42 H s       :     0.903548  s :     0.903548
      pz      :     0.041599  p :     0.070905
      px      :     0.016142
      py      :     0.013164
 43 C s       :     2.908690  s :     2.908690
      pz      :     1.057293  p :     3.194212
      px      :     1.076019
      py      :     1.060900
      dz2     :     0.018118  d :     0.063163
      dxz     :     0.009974
      dyz     :     0.010459
      dx2y2   :     0.016417
      dxy     :     0.008195
 44 H s       :     0.892159  s :     0.892159
      pz      :     0.023959  p :     0.073893
      px      :     0.026368
      py      :     0.023565
 45 H s       :     0.900544  s :     0.900544
      pz      :     0.015761  p :     0.070108
      px      :     0.013323
      py      :     0.041024
 46 H s       :     0.900155  s :     0.900155
      pz      :     0.040809  p :     0.070869
      px      :     0.016881
      py      :     0.013178
 47 H s       :     0.903081  s :     0.903081
      pz      :     0.015186  p :     0.070163
      px      :     0.013730
      py      :     0.041247
 48 H s       :     0.891743  s :     0.891743
      pz      :     0.012874  p :     0.071578
      px      :     0.042247
      py      :     0.016457


                      *****************************
                      * MAYER POPULATION ANALYSIS *
                      *****************************

  NA   - Mulliken gross atomic population
  ZA   - Total nuclear charge
  QA   - Mulliken gross atomic charge
  VA   - Mayer's total valence
  BVA  - Mayer's bonded valence
  FA   - Mayer's free valence

  ATOM       NA         ZA         QA         VA         BVA        FA
  0 Fe    26.0421    26.0000    -0.0421     5.3469     5.3469    -0.0000
  1 S     15.9955    16.0000     0.0045     2.7089     2.7089    -0.0000
  2 C      6.1259     6.0000    -0.1259     3.9066     3.9066    -0.0000
  3 S     15.9242    16.0000     0.0758     2.7540     2.7540     0.0000
  4 S     16.1842    16.0000    -0.1842     2.3064     2.3064     0.0000
  5 S     16.1836    16.0000    -0.1836     2.2782     2.2782    -0.0000
  6 S     15.9429    16.0000     0.0571     2.7575     2.7575     0.0000
  7 C      5.9783     6.0000     0.0217     3.8148     3.8148     0.0000
  8 C      6.0126     6.0000    -0.0126     3.8334     3.8334     0.0000
  9 C      5.9870     6.0000     0.0130     3.8842     3.8842     0.0000
 10 C      6.0945     6.0000    -0.0945     3.8554     3.8554     0.0000
 11 C      5.9869     6.0000     0.0131     3.9434     3.9434     0.0000
 12 C      6.0254     6.0000    -0.0254     3.9152     3.9152    -0.0000
 13 C      5.9829     6.0000     0.0171     3.9292     3.9292    -0.0000
 14 C      6.0990     6.0000    -0.0990     3.8650     3.8650    -0.0000
 15 C      6.0275     6.0000    -0.0275     3.9239     3.9239     0.0000
 16 C      5.9806     6.0000     0.0194     3.8170     3.8170     0.0000
 17 C      6.0131     6.0000    -0.0131     3.8359     3.8359    -0.0000
 18 C      5.9852     6.0000     0.0148     3.8795     3.8795    -0.0000
 19 C      6.0241     6.0000    -0.0241     3.8296     3.8296     0.0000
 20 C      6.0059     6.0000    -0.0059     3.8149     3.8149    -0.0000
 21 C      5.9772     6.0000     0.0228     4.0531     4.0531     0.0000
 22 C      5.9713     6.0000     0.0287     4.0540     4.0540     0.0000
 23 N      7.0765     7.0000    -0.0765     3.4090     3.4090     0.0000
 24 C      6.0062     6.0000    -0.0062     3.9001     3.9001     0.0000
 25 C      6.0073     6.0000    -0.0073     3.9069     3.9069     0.0000
 26 C      5.9447     6.0000     0.0553     3.8760     3.8760     0.0000
 27 H      1.0076     1.0000    -0.0076     0.9781     0.9781     0.0000
 28 H      1.0127     1.0000    -0.0127     0.9798     0.9798     0.0000
 29 H      1.0148     1.0000    -0.0148     0.9924     0.9924     0.0000
 30 H      1.0141     1.0000    -0.0141     0.9966     0.9966    -0.0000
 31 H      1.0110     1.0000    -0.0110     0.9965     0.9965    -0.0000
 32 H      1.0072     1.0000    -0.0072     0.9784     0.9784    -0.0000
 33 H      1.0111     1.0000    -0.0111     0.9797     0.9797    -0.0000
 34 H      1.0146     1.0000    -0.0146     0.9918     0.9918    -0.0000
 35 H      0.9397     1.0000     0.0603     0.9985     0.9985     0.0000
 36 H      0.8975     1.0000     0.1025     1.0066     1.0066     0.0000
 37 H      0.9471     1.0000     0.0529     1.0016     1.0016     0.0000
 38 H      0.9000     1.0000     0.1000     1.0149     1.0149    -0.0000
 39 H      1.0020     1.0000    -0.0020     0.9922     0.9922     0.0000
 40 H      1.0023     1.0000    -0.0023     0.9921     0.9921     0.0000
 41 H      0.9889     1.0000     0.0111     0.9814     0.9814     0.0000
 42 H      0.9241     1.0000     0.0759     0.9906     0.9906    -0.0000
 43 C      6.1129     6.0000    -0.1129     3.9046     3.9046     0.0000
 44 H      0.9072     1.0000     0.0928     1.0209     1.0209     0.0000
 45 H      0.9314     1.0000     0.0686     0.9863     0.9863     0.0000
 46 H      0.9235     1.0000     0.0765     0.9992     0.9992     0.0000
 47 H      0.9355     1.0000     0.0645     0.9835     0.9835    -0.0000
 48 H      0.9101     1.0000     0.0899     1.0055     1.0055     0.0000

  Mayer bond orders larger than 0.1
B(  0-Fe,  1-S ) :   0.6647 B(  0-Fe,  3-S ) :   0.7946 B(  0-Fe,  4-S ) :   0.8413 
B(  0-Fe,  5-S ) :   0.8145 B(  0-Fe,  6-S ) :   0.7942 B(  0-Fe, 23-N ) :   0.7213 
B(  1-S ,  2-C ) :   0.9711 B(  1-S , 43-C ) :   0.9517 B(  2-C , 42-H ) :   0.9595 
B(  2-C , 44-H ) :   0.9537 B(  2-C , 45-H ) :   0.9615 B(  3-S , 10-C ) :   0.8749 
B(  3-S , 19-C ) :   0.9227 B(  4-S , 11-C ) :   1.0936 B(  5-S , 13-C ) :   1.0750 
B(  6-S , 14-C ) :   0.8779 B(  6-S , 20-C ) :   0.9103 B(  7-C ,  8-C ) :   1.3277 
B(  7-C , 12-C ) :   1.4224 B(  7-C , 27-H ) :   0.9789 B(  8-C ,  9-C ) :   1.3967 
B(  8-C , 28-H ) :   0.9796 B(  9-C , 10-C ) :   1.3810 B(  9-C , 29-H ) :   0.9761 
B( 10-C , 11-C ) :   1.3584 B( 11-C , 12-C ) :   1.3306 B( 12-C , 30-H ) :   0.9797 
B( 13-C , 14-C ) :   1.3659 B( 13-C , 15-C ) :   1.3311 B( 14-C , 18-C ) :   1.3755 
B( 15-C , 16-C ) :   1.4263 B( 15-C , 31-H ) :   0.9804 B( 16-C , 17-C ) :   1.3274 
B( 16-C , 32-H ) :   0.9764 B( 17-C , 18-C ) :   1.4011 B( 17-C , 33-H ) :   0.9777 
B( 18-C , 34-H ) :   0.9750 B( 19-C , 22-C ) :   1.0150 B( 19-C , 35-H ) :   0.9231 
B( 19-C , 36-H ) :   0.9055 B( 20-C , 21-C ) :   1.0171 B( 20-C , 37-H ) :   0.9246 
B( 20-C , 38-H ) :   0.9022 B( 21-C , 23-N ) :   1.3055 B( 21-C , 25-C ) :   1.4387 
B( 22-C , 23-N ) :   1.3143 B( 22-C , 24-C ) :   1.4355 B( 24-C , 26-C ) :   1.3747 
B( 24-C , 39-H ) :   0.9625 B( 25-C , 26-C ) :   1.3787 B( 25-C , 40-H ) :   0.9617 
B( 26-C , 41-H ) :   0.9678 B( 43-C , 46-H ) :   0.9637 B( 43-C , 47-H ) :   0.9581 
B( 43-C , 48-H ) :   0.9615 

-------
TIMINGS
-------

Total SCF time: 0 days 0 hours 2 min 42 sec 

Total time                  ....     162.998 sec
Sum of individual times     ....     162.430 sec  ( 99.7%)

Fock matrix formation       ....     148.834 sec  ( 91.3%)
  Split-RI-J                ....     114.733 sec  ( 77.1% of F)
  XC integration            ....      33.789 sec  ( 22.7% of F)
    Basis function eval.    ....      12.652 sec  ( 37.4% of XC)
    Density eval.           ....       9.052 sec  ( 26.8% of XC)
    XC-Functional eval.     ....       1.655 sec  (  4.9% of XC)
    XC-Potential eval.      ....       9.747 sec  ( 28.8% of XC)
Diagonalization             ....       1.923 sec  (  1.2%)
Density matrix formation    ....       0.401 sec  (  0.2%)
Population analysis         ....       0.044 sec  (  0.0%)
Initial guess               ....       3.117 sec  (  1.9%)
Orbital Transformation      ....       0.000 sec  (  0.0%)
Orbital Orthonormalization  ....       0.000 sec  (  0.0%)
DIIS solution               ....       0.857 sec  (  0.5%)
Grid generation             ....       7.253 sec  (  4.4%)

-------------------------   --------------------
FINAL SINGLE POINT ENERGY     -4121.464999590470
-------------------------   --------------------


                            ***************************************
                            *     ORCA property calculations      *
                            ***************************************

                                    ---------------------
                                    Active property flags
                                    ---------------------
   (+) Dipole Moment
   (+) Nuclear properties (Hyperfine,Quadrupole)


------------------------------------------------------------------------------
                       ORCA ELECTRIC PROPERTIES CALCULATION
------------------------------------------------------------------------------

Dipole Moment Calculation                       ... on
Quadrupole Moment Calculation                   ... off
Polarizability Calculation                      ... off
GBWName                                         ... moess.gbw
Electron density file                           ... moess.scfp.tmp
The origin for moment calculation is the CENTER OF MASS  = ( 0.035648, -0.017050  0.006487)

-------------
DIPOLE MOMENT
-------------
                                X             Y             Z
Electronic contribution:     -1.71419      -0.29814      -3.33393
Nuclear contribution   :      1.89358       1.18614       3.70599
                        -----------------------------------------
Total Dipole Moment    :      0.17939       0.88800       0.37207
                        -----------------------------------------
Magnitude (a.u.)       :      0.97936
Magnitude (Debye)      :      2.48934



--------------------
Rotational spectrum 
--------------------
 
Rotational constants in cm-1:     0.007572     0.003979     0.003353 
Rotational constants in MHz :   226.988126   119.284921   100.518536 

 Dipole components along the rotational axes: 
x,y,z [a.u.] :     0.225373    -0.875999     0.375480 
x,y,z [Debye]:     0.572851    -2.226612     0.954395 

 
------------------------------------------------------------------------------
                                ORCA EPR/NMR CALCULATION
------------------------------------------------------------------------------

GBWName                      ... moess.gbw
Electron density file        ... moess.scfp.tmp
Spin density file            ... moess.scfr.tmp
Multiplicity                 ... 1
g-tensor                     ... 0
NMR chemical shifts          ... 0
Number of nuclei for epr/nmr ... 1
   Nucleus:   0Fe
       Hyperfine : Isotope=   57 I=   0.500 P=  17.280
       Quadrupole: Isotope=   57 I=   0.500 Q=   0.160
       Spin-Orbit: Zeff=  13.910
       Ncuelar Spin-Spin: Gn=   0.000
       rho(0)=Y f(grad)=Y a(iso)=N a(dip)=N a(orb)=N sigma(nmr)=N spin-spin(nmr)=all-N,DSO-N,PSO-N,FC-N,SD-N

-----------------------------------------
ELECTRIC AND MAGNETIC HYPERFINE STRUCTURE
-----------------------------------------

 -----------------------------------------------------------
 Nucleus   0Fe: A:ISTP=   57 I=  0.5 P= 17.2798 MHz/au**3
                Q:ISTP=   57 I=  0.5 Q=  0.1600 barn     
 -----------------------------------------------------------
 Raw EFG matrix (all values in a.u.**-3):
             0.1449      -0.0305       0.1008
            -0.0305       0.1761       0.0718
             0.1008       0.0718      -0.3211

 V(El)      -0.0381       0.2060      -0.1679
 V(Nuc)      0.1961      -0.0110      -0.1851
         ----------   ----------   ----------
 V(Tot)      0.1579       0.1950      -0.3530 
 Orientation: 
  X       0.8551164    0.4763092    0.2047081
  Y       0.4552329   -0.8787927    0.1431304
  Z       0.2480703   -0.0292033   -0.9683018

Note: Tensor is right-handed

Moessbauer quadrupole splitting parameter (proper coordinate system)
 e**2qQ  =  -13.269 MHz =   -1.144 mm/s
 eta     =  0.105
 Delta-EQ=(1/2{e**2qQ}*sqrt(1+1/3*eta**2) =   -6.647 MHz =   -0.573 mm/s
 RHO(0)=  11189.600731633 a.u.**-3


------------------------------------------------------------------------------- 

Timings for individual modules:

Sum of individual times         ...      163.959 sec (=   2.733 min)
GTO integral calculation        ...        0.575 sec (=   0.010 min)   0.4 %
SCF iterations                  ...      163.023 sec (=   2.717 min)  99.4 %
EPR/NMR calculation             ...        0.361 sec (=   0.006 min)   0.2 %
                             ****ORCA TERMINATED NORMALLY****
TOTAL RUN TIME: 0 days 0 hours 2 minutes 44 seconds 198 msec
