
                                 *****************
                                 * O   R   C   A *
                                 *****************

           --- An Ab Initio, DFT and Semiempirical electronic structure package ---

                  #######################################################
                  #                        -***-                        #
                  #          Department of theory and spectroscopy      #
                  #               Directorship: Frank Neese             #
                  #        Max Planck Institute fuer Kohlenforschung    #
                  #                Kaiser Wilhelm Platz 1               #
                  #                 D-45470 Muelheim/Ruhr               #
                  #                      Germany                        #
                  #                                                     #
                  #                  All rights reserved                #
                  #                        -***-                        #
                  #######################################################


                         Program Version 4.1.2  - RELEASE  -


 With contributions from (in alphabetic order):
   Daniel Aravena         : Magnetic Properties
   Michael Atanasov       : Ab Initio Ligand Field Theory
   Alexander A. Auer      : GIAO ZORA
   Ute Becker             : Parallelization
   Giovanni Bistoni       : ED, Open-shell LED
   Martin Brehm           : Molecular dynamics
   Dmytro Bykov           : SCF Hessian
   Vijay G. Chilkuri      : MRCI spin determinant printing
   Dipayan Datta          : RHF DLPNO-CCSD density
   Achintya Kumar Dutta   : EOM-CC, STEOM-CC
   Dmitry Ganyushin       : Spin-Orbit,Spin-Spin,Magnetic field MRCI
   Miquel Garcia          : C-PCM Hessian
   Yang Guo               : DLPNO-NEVPT2, CIM, IAO-localization
   Andreas Hansen         : Spin unrestricted coupled pair/coupled cluster methods
   Benjamin Helmich-Paris : CASSCF linear response (MC-RPA)
   Lee Huntington         : MR-EOM, pCC
   Robert Izsak           : Overlap fitted RIJCOSX, COSX-SCS-MP3, EOM
   Christian Kollmar      : KDIIS, OOCD, Brueckner-CCSD(T), CCSD density
   Simone Kossmann        : Meta GGA functionals, TD-DFT gradient, OOMP2, MP2 Hessian
   Martin Krupicka        : AUTO-CI
   Lucas Lang             : DCDCAS
   Dagmar Lenk            : GEPOL surface, SMD
   Dimitrios Liakos       : Extrapolation schemes; parallel MDCI
   Dimitrios Manganas     : ROCIS; embedding schemes
   Dimitrios Pantazis     : SARC Basis sets
   Taras Petrenko         : DFT Hessian,TD-DFT gradient, ASA, ECA, R-Raman, ABS, FL, XAS/XES, NRVS
   Peter Pinski           : DLPNO-MP2, DLPNO-MP2 Gradient
   Christoph Reimann      : Effective Core Potentials
   Marius Retegan         : Local ZFS, SOC
   Christoph Riplinger    : Optimizer, TS searches, QM/MM, DLPNO-CCSD(T), (RO)-DLPNO pert. Triples
   Tobias Risthaus        : Range-separated hybrids, TD-DFT gradient, RPA, STAB
   Michael Roemelt        : Restricted open shell CIS
   Masaaki Saitow         : Open-shell DLPNO
   Barbara Sandhoefer     : DKH picture change effects
   Avijit Sen             : IP-ROCIS
   Kantharuban Sivalingam : CASSCF convergence, NEVPT2, FIC-MRCI
   Bernardo de Souza      : ESD, SOC TD-DFT
   Georgi Stoychev        : AutoAux, RI-MP2 NMR
   Willem Van den Heuvel  : Paramagnetic NMR
   Boris Wezisla          : Elementary symmetry handling
   Frank Wennmohs         : Technical directorship


 We gratefully acknowledge several colleagues who have allowed us to
 interface, adapt or use parts of their codes:
   Stefan Grimme, W. Hujo, H. Kruse,             : VdW corrections, initial TS optimization,
                  C. Bannwarth                     DFT functionals, gCP, sTDA/sTD-DF
   Ed Valeev                                     : LibInt (2-el integral package), F12 methods
   Garnet Chan, S. Sharma, J. Yang, R. Olivares  : DMRG
   Ulf Ekstrom                                   : XCFun DFT Library
   Mihaly Kallay                                 : mrcc  (arbitrary order and MRCC methods)
   Andreas Klamt, Michael Diedenhofen            : otool_cosmo (COSMO solvation model)
   Jiri Pittner, Ondrej Demel                    : Mk-CCSD
   Frank Weinhold                                : gennbo (NPA and NBO analysis)
   Christopher J. Cramer and Donald G. Truhlar   : smd solvation model
   Lars Goerigk                                  : TD-DFT with DH, B97 family of functionals
   V. Asgeirsson, H. Jonsson                     : NEB implementation
   FAccTs GmbH                                   : IRC, NEB, NEB-TS, Multilevel


 Your calculation uses the libint2 library for the computation of 2-el integrals
 For citations please refer to: http://libint.valeyev.net

 This ORCA versions uses:
   CBLAS   interface :  Fast vector & matrix operations
   LAPACKE interface :  Fast linear algebra routines
   SCALAPACK package :  Parallel linear algebra routines




***************************************
The coordinates will be read from file: geom.xyz
***************************************


----- Orbital basis set information -----
Your calculation utilizes the basis: def2-SVP
   F. Weigend and R. Ahlrichs, Phys. Chem. Chem. Phys. 7, 3297 (2005).

----- AuxJ basis set information -----
Your calculation utilizes the auxiliary basis: def2/J
   F. Weigend, Phys. Chem. Chem. Phys. 8, 1057 (2006).

================================================================================
                                        WARNINGS
                       Please study these warnings very carefully!
================================================================================


WARNING: your system is open-shell and RHF/RKS was chosen
  ===> : WILL SWITCH to UHF/UKS


INFO   : the flag for use of LIBINT has been found!

================================================================================
                                       INPUT FILE
================================================================================
NAME = moess.inp
|  1> ! bp86 def2-svp
|  2> 
|  3> * xyzfile  -4 5 geom.xyz
|  4> 
|  5> %eprnmr
|  6> nuclei = all Fe {fgrad, rho}
|  7> end
|  8> 
|  9> 
| 10>                          ****END OF INPUT****
================================================================================

                       ****************************
                       * Single Point Calculation *
                       ****************************

---------------------------------
CARTESIAN COORDINATES (ANGSTROEM)
---------------------------------
  Fe    -0.000035    0.000012    0.000014
  F      2.116808   -0.003546    0.032360
  F     -2.116824    0.001611   -0.030945
  F     -0.003602    2.164955    0.001902
  F      0.001648   -2.165219   -0.003295
  F      0.032586    0.003638    2.109790
  F     -0.030580   -0.001452   -2.109825

----------------------------
CARTESIAN COORDINATES (A.U.)
----------------------------
  NO LB      ZA    FRAG     MASS         X           Y           Z
   0 Fe   26.0000    0    55.850   -0.000066    0.000023    0.000026
   1 F     9.0000    0    18.998    4.000187   -0.006701    0.061152
   2 F     9.0000    0    18.998   -4.000218    0.003044   -0.058478
   3 F     9.0000    0    18.998   -0.006807    4.091172    0.003594
   4 F     9.0000    0    18.998    0.003114   -4.091671   -0.006227
   5 F     9.0000    0    18.998    0.061579    0.006875    3.986925
   6 F     9.0000    0    18.998   -0.057788   -0.002744   -3.986991

--------------------------------
INTERNAL COORDINATES (ANGSTROEM)
--------------------------------
 Fe     0   0   0     0.000000000000     0.00000000     0.00000000
 F      1   0   0     2.117093103699     0.00000000     0.00000000
 F      1   2   0     2.117015986478   179.93505552     0.00000000
 F      1   2   3     2.164946761766    90.18991868   144.66700864
 F      1   2   4     2.165234182561    89.86051639   179.96317082
 F      1   2   5     2.110031290690    88.23891489    90.18970001
 F      1   2   6     2.110060602505    91.70479545   179.94116877

---------------------------
INTERNAL COORDINATES (A.U.)
---------------------------
 Fe     0   0   0     0.000000000000     0.00000000     0.00000000
 F      1   0   0     4.000726166004     0.00000000     0.00000000
 F      1   2   0     4.000580435576   179.93505552     0.00000000
 F      1   2   3     4.091156474258    90.18991868   144.66700864
 F      1   2   4     4.091699620845    89.86051639   179.96317082
 F      1   2   5     3.987381273409    88.23891489    90.18970001
 F      1   2   6     3.987436664711    91.70479545   179.94116877

---------------------
BASIS SET INFORMATION
---------------------
There are 2 groups of distinct atoms

 Group   1 Type Fe  : 14s9p5d1f contracted to 5s3p2d1f pattern {63311/531/41/1}
 Group   2 Type F   : 7s4p1d contracted to 3s2p1d pattern {511/31/1}

Atom   0Fe   basis set group =>   1
Atom   1F    basis set group =>   2
Atom   2F    basis set group =>   2
Atom   3F    basis set group =>   2
Atom   4F    basis set group =>   2
Atom   5F    basis set group =>   2
Atom   6F    basis set group =>   2
-------------------------------
AUXILIARY BASIS SET INFORMATION
-------------------------------
There are 2 groups of distinct atoms

 Group   1 Type Fe  : 19s5p5d3f3g contracted to 8s5p5d2f3g pattern {121111111/11111/11111/21/111}
 Group   2 Type F   : 12s5p4d2f1g contracted to 6s4p3d1f1g pattern {711111/2111/211/2/1}

Atom   0Fe   basis set group =>   1
Atom   1F    basis set group =>   2
Atom   2F    basis set group =>   2
Atom   3F    basis set group =>   2
Atom   4F    basis set group =>   2
Atom   5F    basis set group =>   2
Atom   6F    basis set group =>   2
------------------------------------------------------------------------------
                           ORCA GTO INTEGRAL CALCULATION
                           -- RI-GTO INTEGRALS CHOSEN --
------------------------------------------------------------------------------

                         BASIS SET STATISTICS AND STARTUP INFO

Gaussian basis set:
 # of primitive gaussian shells          ...  101
 # of primitive gaussian functions       ...  217
 # of contracted shells                  ...   47
 # of contracted basis functions         ...  115
 Highest angular momentum                ...    3
 Maximum contraction depth               ...    6
Auxiliary gaussian basis set:
 # of primitive gaussian shells          ...  179
 # of primitive gaussian functions       ...  527
 # of contracted shells                  ...  113
 # of contracted aux-basis functions     ...  383
 Highest angular momentum                ...    4
 Maximum contraction depth               ...   12
Ratio of auxiliary to basis functions    ...  3.33
Integral package used                  ... LIBINT
 One Electron integrals                  ... done
 Ordering auxiliary basis shells         ... done
 Integral threshhold             Thresh  ...  1.000e-10
 Primitive cut-off               TCut    ...  1.000e-11
 Pre-screening matrix                    ... done
 Shell pair data                         ... 
 Ordering of the shell pairs             ... done (   0.000 sec) 978 of 1128 pairs
 Determination of significant pairs      ... done (   0.000 sec)
 Creation of shell pair data             ... done (   0.000 sec)
 Storage of shell pair data              ... done (   0.000 sec)
 Shell pair data done in (   0.001 sec)
 Computing two index integrals           ... done
 Cholesky decomposition of the V-matrix  ... done


Timings:
 Total evaluation time                   ...   0.148 sec (  0.002 min)
 One electron matrix time                ...   0.007 sec (  0.000 min) =  5.0%
 Schwartz matrix evaluation time         ...   0.116 sec (  0.002 min) = 77.9%
 Two index repulsion integral time       ...   0.003 sec (  0.000 min) =  2.0%
 Cholesky decomposition of V             ...   0.002 sec (  0.000 min) =  1.2%
 Three index repulsion integral time     ...   0.000 sec (  0.000 min) =  0.0%

-------------------------------------------------------------------------------
                                 ORCA SCF
-------------------------------------------------------------------------------

------------
SCF SETTINGS
------------
Hamiltonian:
 Density Functional     Method          .... DFT(GTOs)
 Exchange Functional    Exchange        .... B88
   X-Alpha parameter    XAlpha          ....  0.666667
   Becke's b parameter  XBeta           ....  0.004200
 Correlation Functional Correlation     .... P86
 LDA part of GGA corr.  LDAOpt          .... PW91-LDA
 Gradients option       PostSCFGGA      .... off
   Density functional embedding theory  .... OFF
 RI-approximation to the Coulomb term is turned on
   Number of auxiliary basis functions  .... 383


General Settings:
 Integral files         IntName         .... moess
 Hartree-Fock type      HFTyp           .... UHF
 Total Charge           Charge          ....   -4
 Multiplicity           Mult            ....    5
 Number of Electrons    NEL             ....   84
 Basis Dimension        Dim             ....  115
 Nuclear Repulsion      ENuc            ....    549.6279461815 Eh

Convergence Acceleration:
 DIIS                   CNVDIIS         .... on
   Start iteration      DIISMaxIt       ....    12
   Startup error        DIISStart       ....  0.200000
   # of expansion vecs  DIISMaxEq       ....     5
   Bias factor          DIISBfac        ....   1.050
   Max. coefficient     DIISMaxC        ....  10.000
 Newton-Raphson         CNVNR           .... off
 SOSCF                  CNVSOSCF        .... off
 Level Shifting         CNVShift        .... on
   Level shift para.    LevelShift      ....    0.2500
   Turn off err/grad.   ShiftErr        ....    0.0010
 Zerner damping         CNVZerner       .... off
 Static damping         CNVDamp         .... on
   Fraction old density DampFac         ....    0.7000
   Max. Damping (<1)    DampMax         ....    0.9800
   Min. Damping (>=0)   DampMin         ....    0.0000
   Turn off err/grad.   DampErr         ....    0.1000
 Fernandez-Rico         CNVRico         .... off

SCF Procedure:
 Maximum # iterations   MaxIter         ....   125
 SCF integral mode      SCFMode         .... Direct
   Integral package                     .... LIBINT
 Reset frequency        DirectResetFreq ....    20
 Integral Threshold     Thresh          ....  1.000e-10 Eh
 Primitive CutOff       TCut            ....  1.000e-11 Eh

Convergence Tolerance:
 Convergence Check Mode ConvCheckMode   .... Total+1el-Energy
 Convergence forced     ConvForced      .... 0
 Energy Change          TolE            ....  1.000e-06 Eh
 1-El. energy change                    ....  1.000e-03 Eh
 DIIS Error             TolErr          ....  1.000e-06


Diagonalization of the overlap matrix:
Smallest eigenvalue                        ... 6.335e-02
Time for diagonalization                   ...    0.002 sec
Threshold for overlap eigenvalues          ... 1.000e-08
Number of eigenvalues below threshold      ... 0
Time for construction of square roots      ...    0.001 sec
Total time needed                          ...    0.002 sec

-------------------
DFT GRID GENERATION
-------------------

General Integration Accuracy     IntAcc      ...  4.340
Radial Grid Type                 RadialGrid  ... Gauss-Chebyshev
Angular Grid (max. acc.)         AngularGrid ... Lebedev-110
Angular grid pruning method      GridPruning ... 3 (G Style)
Weight generation scheme         WeightScheme... Becke
Basis function cutoff            BFCut       ...    1.0000e-10
Integration weight cutoff        WCut        ...    1.0000e-14
Grids for H and He will be reduced by one unit

# of grid points (after initial pruning)     ...  13352 (   0.0 sec)
# of grid points (after weights+screening)   ...  12926 (   0.0 sec)
nearest neighbour list constructed           ...    0.0 sec
Grid point re-assignment to atoms done       ...    0.0 sec
Grid point division into batches done        ...    0.0 sec
Reduced shell lists constructed in    0.1 sec

Total number of grid points                  ...    12926
Total number of batches                      ...      206
Average number of points per batch           ...       62
Average number of grid points per atom       ...     1847
Average number of shells per batch           ...    26.86 (57.15%)
Average number of basis functions per batch  ...    68.20 (59.31%)
Average number of large shells per batch     ...    19.66 (73.20%)
Average number of large basis fcns per batch ...    48.76 (71.50%)
Maximum spatial batch extension              ...  30.38, 25.65, 17.22 au
Average spatial batch extension              ...   4.42,  4.49,  3.79 au

Time for grid setup =    0.083 sec

------------------------------
INITIAL GUESS: MODEL POTENTIAL
------------------------------
Loading Hartree-Fock densities                     ... done
Calculating cut-offs                               ... done
Setting up the integral package                    ... done
Initializing the effective Hamiltonian             ... done
Starting the Coulomb interaction                   ... done (   0.0 sec)
Reading the grid                                   ... done
Mapping shells                                     ... done
Starting the XC term evaluation                    ... done (   0.1 sec)
  promolecular density results
     # of electrons  =     80.004088817
     EX              =   -114.369541930
     EC              =     -3.363966419
     EX+EC           =   -117.733508349
Transforming the Hamiltonian                       ... done (   0.0 sec)
Diagonalizing the Hamiltonian                      ... done (   0.0 sec)
Back transforming the eigenvectors                 ... done (   0.0 sec)
Now organizing SCF variables                       ... done
                      ------------------
                      INITIAL GUESS DONE (   0.3 sec)
                      ------------------
--------------
SCF ITERATIONS
--------------
ITER       Energy         Delta-E        Max-DP      RMS-DP      [F,P]     Damp
               ***  Starting incremental Fock matrix formation  ***
  0  -1861.1273458307   0.000000000000 0.08166124  0.00235264  0.2980231 0.7000
  1  -1861.3149259729  -0.187580142153 0.05406665  0.00123169  0.1121102 0.7000
                               ***Turning on DIIS***
  2  -1861.3777556916  -0.062829718717 0.06458243  0.00158280  0.0246383 0.0000
  3  -1861.5148618106  -0.137106118972 0.02618135  0.00072152  0.0469956 0.0000
  4  -1861.5244056662  -0.009543855638 0.01175613  0.00023989  0.0219728 0.0000
  5  -1861.5257735314  -0.001367865203 0.01020914  0.00011979  0.0064869 0.0000
  6  -1861.5258812657  -0.000107734248 0.01420667  0.00013734  0.0022851 0.0000
  7  -1861.5259527209  -0.000071455245 0.02026887  0.00019255  0.0016410 0.0000
  8  -1861.5260628571  -0.000110136180 0.02884582  0.00027895  0.0023239 0.0000
  9  -1861.5262811925  -0.000218335419 0.04096636  0.00041178  0.0032199 0.0000
 10  -1861.5267091643  -0.000427971814 0.05701959  0.00061697  0.0043168 0.0000
 11  -1861.5275152488  -0.000806084447 0.08197636  0.00094597  0.0081486 0.0000
 12  -1861.5288919708  -0.001376721996 0.15269838  0.00146131  0.0158949 0.0000
 13  -1861.5307842665  -0.001892295704 0.26107904  0.00221050  0.0289915 0.0000
 14  -1861.5319140964  -0.001129829943 0.39217123  0.00309437  0.0506957 0.0000
 15  -1861.5285174712   0.003396625255 0.49547147  0.00377762  0.0812462 0.0000
 16  -1861.5155053706   0.013012100564 0.15403123  0.00116265  0.1153119 0.7000
 17  -1861.5095911431   0.005914227482 0.23975225  0.00181475  0.1246438 0.7000
 18  -1861.4991732611   0.010417881970 0.27145745  0.00207054  0.1372368 0.7000
 19  -1861.4850991018   0.014074159353 0.26418461  0.00204151  0.1499786 0.7000
               *** Restarting incremental Fock matrix formation ***
                                   *** Resetting DIIS ***
 20  -1861.4697493540   0.015349747742 0.37605189  0.00310433  0.1601883 0.7000
 21  -1861.5122012833  -0.042451929243 0.94571773  0.00729121  0.0230509 0.0000
 22  -1861.4127838648   0.099417418533 0.01201801  0.00023618  0.2168165 0.7000
 23  -1861.4372116895  -0.024427824699 0.01564471  0.00028654  0.1941302 0.7000
 24  -1861.4622941088  -0.025082419352 0.01198549  0.00026274  0.1689064 0.7000
 25  -1861.4828083587  -0.020514249935 0.02015069  0.00030729  0.1454668 0.7000
 26  -1861.5032336217  -0.020425262946 0.16848795  0.00133143  0.1145887 0.7000
 27  -1861.5267323836  -0.023498761933 0.64857125  0.00496172  0.0576874 0.0000
 28  -1861.5367617006  -0.010029317012 0.10167532  0.00082036  0.0615330 0.0000
 29  -1861.5413484059  -0.004586705224 0.04793089  0.00040509  0.0399656 0.0000
 30  -1861.5438799513  -0.002531545426 0.02517050  0.00022285  0.0273875 0.0000
 31  -1861.5451941919  -0.001314240632 0.01109668  0.00011724  0.0191259 0.0000
 32  -1861.5459063320  -0.000712140069 0.02783774  0.00023979  0.0129372 0.0000
 33  -1861.5465568653  -0.000650533356 1.91521130  0.01491016  0.0007452 0.0000
 34  -1861.4723649406   0.074191924725 0.00003289  0.00000071  0.1717025 0.7000
 35  -1861.4723146636   0.000050277033 0.00005665  0.00000086  0.1717847 0.7000
 36  -1861.4722637420   0.000050921548 0.00005980  0.00000073  0.1718621 0.7000
 37  -1861.4722449301   0.000018811985 0.00003393  0.00000066  0.1718856 0.7000
 38  -1861.4722758114  -0.000030881347 0.66452431  0.00515229  0.1718298 0.7000
 39  -1861.5220422045  -0.049766393093 1.86260004  0.01419652  0.0098752 0.0000
               *** Restarting incremental Fock matrix formation ***
                                   *** Resetting DIIS ***
 40  -1861.4474255180   0.074616686522 0.57897073  0.00461860  0.1721387 0.7000
 41  -1861.4900273471  -0.042601829134 1.41152348  0.01080132  0.0500260 0.0000
 42  -1861.2517663902   0.238260956906 0.01476027  0.00030439  0.3286243 0.7000
 43  -1861.3030449915  -0.051278601321 0.02211449  0.00038271  0.2968568 0.7000
 44  -1861.3558303895  -0.052785397985 0.02308941  0.00037157  0.2616428 0.7000
 45  -1861.3985410075  -0.042710617964 0.01587983  0.00037970  0.2297502 0.7000
 46  -1861.4430130965  -0.044472089069 0.25325937  0.00203136  0.1852471 0.7000
 47  -1861.5000852351  -0.057072138532 1.01712035  0.00781245  0.0894588 0.0000
 48  -1861.5199479415  -0.019862706424 0.04537893  0.00037277  0.1019250 0.7000
 49  -1861.5240981216  -0.004150180139 0.22559081  0.00179130  0.0902888 0.0000
 50  -1861.5356451083  -0.011546986623 0.01783208  0.00028139  0.0553815 0.0000
 51  -1861.5416562924  -0.006011184135 0.00555820  0.00015480  0.0346894 0.0000
 52  -1861.5443828898  -0.002726597461 0.07535042  0.00060940  0.0227136 0.0000
 53  -1861.5464849467  -0.002102056881 0.02919157  0.00023696  0.0028269 0.0000
 54  -1861.5465136267  -0.000028680013 0.02110956  0.00016845  0.0046083 0.0000
 55  -1861.5465172749  -0.000003648123 0.00756670  0.00006659  0.0052966 0.0000
 56  -1861.5465568713  -0.000039596436 0.00210277  0.00002725  0.0037179 0.0000
 57  -1861.5465848727  -0.000028001432 0.00679418  0.00005679  0.0023400 0.0000
 58  -1861.5466072285  -0.000022355733 1.02173067  0.00795752  0.0003693 0.0000
 59  -1861.5257914279   0.020815800613 0.00033058  0.00000356  0.0643819 0.0000
               *** Restarting incremental Fock matrix formation ***
                                   *** Resetting DIIS ***
 60  -1861.5258164609  -0.000025033032 0.80384933  0.00657853  0.0643124 0.0000
 61  -1861.4277121693   0.098104291621 0.08447240  0.00068917  0.2004212 0.7000
 62  -1861.4430356894  -0.015323520159 0.13825387  0.00108013  0.1850202 0.7000
 63  -1861.4553471938  -0.012311504388 0.16839066  0.00129300  0.1729175 0.7000
 64  -1861.4630396479  -0.007692454101 0.18021490  0.00137355  0.1659674 0.7000
 65  -1861.4671656742  -0.004126026297 0.26751838  0.00218608  0.1630266 0.7000
 66  -1861.5203417184  -0.053176044199 0.73486055  0.00570670  0.0439734 0.0000
 67  -1861.5004551023   0.019886616113 0.00717641  0.00013192  0.1076036 0.7000
 68  -1861.5082255703  -0.007770468009 0.02743779  0.00050612  0.0952072 0.0000
 69  -1861.5326753572  -0.024449786939 0.06416156  0.00054918  0.0506304 0.0000
 70  -1861.5409800069  -0.008304649670 0.07298124  0.00058222  0.0291162 0.0000
 71  -1861.5441985337  -0.003218526799 0.07704854  0.00060152  0.0154156 0.0000
 72  -1861.5457578642  -0.001559330509 0.07927825  0.00061278  0.0056328 0.0000
 73  -1861.5461118540  -0.000353989774 0.06641856  0.00050846  0.0036321 0.0000
 74  -1861.5461661287  -0.000054274697 0.06115075  0.00046631  0.0067436 0.0000
 75  -1861.5461339734   0.000032155301 0.06397509  0.00048563  0.0093397 0.0000
 76  -1861.5458995396   0.000234433752 0.06833049  0.00051741  0.0137283 0.0000
 77  -1861.5453983735   0.000501166124 0.06770829  0.00051169  0.0191878 0.0000
 78  -1861.5447560985   0.000642275058 0.06801891  0.00051443  0.0240523 0.0000
 79  -1861.5440171202   0.000738978284 0.05649968  0.00042857  0.0286968 0.0000
               *** Restarting incremental Fock matrix formation ***
                                   *** Resetting DIIS ***
 80  -1861.5437415763   0.000275543840 0.32352907  0.00251934  0.0300114 0.0000
 81  -1861.5357833953   0.007958180999 0.02900151  0.00040445  0.0641715 0.0000
 82  -1861.5427355617  -0.006952166352 0.00759244  0.00014249  0.0328826 0.0000
 83  -1861.5448529915  -0.002117429804 0.03309577  0.00026815  0.0200846 0.0000
 84  -1861.5460497939  -0.001196802411 0.03618831  0.00028029  0.0097447 0.0000
 85  -1861.5464639843  -0.000414190362 0.03444800  0.00026446  0.0033249 0.0000
 86  -1861.5465696236  -0.000105639359 2.15061773  0.01690950  0.0009599 0.0000
 87  -1861.4578739491   0.088695674555 0.00003640  0.00000097  0.1829974 0.7000
 88  -1861.4577858454   0.000088103616 0.00004073  0.00000104  0.1831211 0.7000
 89  -1861.4576934404   0.000092405004 0.00004471  0.00000103  0.1832404 0.7000
 90  -1861.4576315464   0.000061894051 0.00004114  0.00000086  0.1833061 0.7000
 91  -1861.4575826973   0.000048849125 0.92318051  0.00704569  0.1833576 0.7000
 92  -1861.5210062540  -0.063423556738 2.27448748  0.01723167  0.0103627 0.0000
 93  -1861.3928054251   0.128200828857 0.02089232  0.00024458  0.1894336 0.7000
 94  -1861.4047828838  -0.011977458691 0.02957492  0.00033123  0.1789144 0.7000
 95  -1861.4166485794  -0.011865695529 0.03218887  0.00035739  0.1687227 0.7000
 96  -1861.4258973156  -0.009248736201 0.03337487  0.00036962  0.1607975 0.7000
 97  -1861.4303618084  -0.004464492799 0.46828631  0.00387114  0.1568296 0.7000
 98  -1861.5151192549  -0.084757446506 1.27943478  0.01009724  0.0136790 0.0000
 99  -1861.4139769127   0.101142342193 0.05521945  0.00045054  0.2013625 0.7000
               *** Restarting incremental Fock matrix formation ***
                                   *** Resetting DIIS ***
100  -1861.4296330623  -0.015656149588 0.44995088  0.00362625  0.1886599 0.7000
101  -1861.5069631029  -0.077330040581 1.16859749  0.00915529  0.0176014 0.0000
102  -1861.4331548918   0.073808211047 0.01252623  0.00022445  0.1622175 0.7000
103  -1861.4504331132  -0.017278221371 0.01432136  0.00025399  0.1453408 0.7000
104  -1861.4688243837  -0.018391270562 0.01249351  0.00022859  0.1271844 0.7000
105  -1861.4846536194  -0.015829235700 0.01011343  0.00018151  0.1115485 0.7000
106  -1861.4943907667  -0.009737147238 0.07811194  0.00077519  0.1016504 0.7000
107  -1861.5191596161  -0.024768849446 0.32514996  0.00283783  0.0628482 0.0000
108  -1861.5412381891  -0.022078572948 0.13612264  0.00109156  0.0287350 0.0000
109  -1861.5417992084  -0.000561019286 0.11600392  0.00090658  0.0299796 0.0000
110  -1861.5423819868  -0.000582778444 0.10771351  0.00083270  0.0282172 0.0000
111  -1861.5429417865  -0.000559799746 0.09673725  0.00074140  0.0274373 0.0000
112  -1861.5433260574  -0.000384270808 0.29834291  0.00244679  0.0270796 0.0000
113  -1861.5258880272   0.017438030163 0.03106624  0.00048036  0.0831818 0.0000
114  -1861.5397597839  -0.013871756720 0.04943492  0.00040601  0.0370952 0.0000
115  -1861.5436217862  -0.003862002311 0.06921273  0.00054168  0.0205098 0.0000
116  -1861.5455092702  -0.001887483982 0.07039471  0.00054299  0.0081483 0.0000
117  -1861.5460869273  -0.000577657110 0.06063763  0.00046505  0.0030426 0.0000
118  -1861.5462450022  -0.000158074925 0.05319613  0.00040652  0.0026923 0.0000
119  -1861.5463146161  -0.000069613822 0.05174745  0.00039370  0.0044113 0.0000
               *** Restarting incremental Fock matrix formation ***
                                   *** Resetting DIIS ***
120  -1861.5463103460   0.000004270050 0.03614282  0.00032256  0.0068652 0.0000
121  -1861.5459056632   0.000404682783 0.02759825  0.00021844  0.0135515 0.0000
122  -1861.5463947376  -0.000489074377 0.03678816  0.00027934  0.0047072 0.0000
123  -1861.5465321192  -0.000137381562 0.03123576  0.00023671  0.0011712 0.0000
124  -1861.5465606779  -0.000028558685 0.02635732  0.00020048  0.0019163 0.0000

               *****************************************************
               *                      ERROR                        *
               *        SCF NOT CONVERGED AFTER 125 CYCLES         *
               *****************************************************


---------------
SCF CONVERGENCE
---------------

  Last Energy change         ...   -2.8559e-05  Tolerance :   1.0000e-06
  Last MAX-Density change    ...    2.6357e-02  Tolerance :   1.0000e-05
  Last RMS-Density change    ...    2.0048e-04  Tolerance :   1.0000e-06
  Last DIIS Error            ...    1.9163e-03  Tolerance :   1.0000e-06

     --------------------------------------------------------------------
                                      ERROR
     This wavefunction IS NOT CONVERGED! 
     And it is 'too far' from meeting the convergence thresholds.
     Aborting ...
     Please restart calculation (with larger maxiter?)
     --------------------------------------------------------------------



ORCA finished by error termination in SCF
Calling Command: /home/spiller/software/orca/orca_4_1_2_linux_x86-64_shared_openmpi313/orca_scf moess.gbw b 
[file orca_tools/qcmsg.cpp, line 458]: 
  .... aborting the run

