
                                 *****************
                                 * O   R   C   A *
                                 *****************

           --- An Ab Initio, DFT and Semiempirical electronic structure package ---

                  #######################################################
                  #                        -***-                        #
                  #          Department of theory and spectroscopy      #
                  #               Directorship: Frank Neese             #
                  #        Max Planck Institute fuer Kohlenforschung    #
                  #                Kaiser Wilhelm Platz 1               #
                  #                 D-45470 Muelheim/Ruhr               #
                  #                      Germany                        #
                  #                                                     #
                  #                  All rights reserved                #
                  #                        -***-                        #
                  #######################################################


                         Program Version 4.1.2  - RELEASE  -


 With contributions from (in alphabetic order):
   Daniel Aravena         : Magnetic Properties
   Michael Atanasov       : Ab Initio Ligand Field Theory
   Alexander A. Auer      : GIAO ZORA
   Ute Becker             : Parallelization
   Giovanni Bistoni       : ED, Open-shell LED
   Martin Brehm           : Molecular dynamics
   Dmytro Bykov           : SCF Hessian
   Vijay G. Chilkuri      : MRCI spin determinant printing
   Dipayan Datta          : RHF DLPNO-CCSD density
   Achintya Kumar Dutta   : EOM-CC, STEOM-CC
   Dmitry Ganyushin       : Spin-Orbit,Spin-Spin,Magnetic field MRCI
   Miquel Garcia          : C-PCM Hessian
   Yang Guo               : DLPNO-NEVPT2, CIM, IAO-localization
   Andreas Hansen         : Spin unrestricted coupled pair/coupled cluster methods
   Benjamin Helmich-Paris : CASSCF linear response (MC-RPA)
   Lee Huntington         : MR-EOM, pCC
   Robert Izsak           : Overlap fitted RIJCOSX, COSX-SCS-MP3, EOM
   Christian Kollmar      : KDIIS, OOCD, Brueckner-CCSD(T), CCSD density
   Simone Kossmann        : Meta GGA functionals, TD-DFT gradient, OOMP2, MP2 Hessian
   Martin Krupicka        : AUTO-CI
   Lucas Lang             : DCDCAS
   Dagmar Lenk            : GEPOL surface, SMD
   Dimitrios Liakos       : Extrapolation schemes; parallel MDCI
   Dimitrios Manganas     : ROCIS; embedding schemes
   Dimitrios Pantazis     : SARC Basis sets
   Taras Petrenko         : DFT Hessian,TD-DFT gradient, ASA, ECA, R-Raman, ABS, FL, XAS/XES, NRVS
   Peter Pinski           : DLPNO-MP2, DLPNO-MP2 Gradient
   Christoph Reimann      : Effective Core Potentials
   Marius Retegan         : Local ZFS, SOC
   Christoph Riplinger    : Optimizer, TS searches, QM/MM, DLPNO-CCSD(T), (RO)-DLPNO pert. Triples
   Tobias Risthaus        : Range-separated hybrids, TD-DFT gradient, RPA, STAB
   Michael Roemelt        : Restricted open shell CIS
   Masaaki Saitow         : Open-shell DLPNO
   Barbara Sandhoefer     : DKH picture change effects
   Avijit Sen             : IP-ROCIS
   Kantharuban Sivalingam : CASSCF convergence, NEVPT2, FIC-MRCI
   Bernardo de Souza      : ESD, SOC TD-DFT
   Georgi Stoychev        : AutoAux, RI-MP2 NMR
   Willem Van den Heuvel  : Paramagnetic NMR
   Boris Wezisla          : Elementary symmetry handling
   Frank Wennmohs         : Technical directorship


 We gratefully acknowledge several colleagues who have allowed us to
 interface, adapt or use parts of their codes:
   Stefan Grimme, W. Hujo, H. Kruse,             : VdW corrections, initial TS optimization,
                  C. Bannwarth                     DFT functionals, gCP, sTDA/sTD-DF
   Ed Valeev                                     : LibInt (2-el integral package), F12 methods
   Garnet Chan, S. Sharma, J. Yang, R. Olivares  : DMRG
   Ulf Ekstrom                                   : XCFun DFT Library
   Mihaly Kallay                                 : mrcc  (arbitrary order and MRCC methods)
   Andreas Klamt, Michael Diedenhofen            : otool_cosmo (COSMO solvation model)
   Jiri Pittner, Ondrej Demel                    : Mk-CCSD
   Frank Weinhold                                : gennbo (NPA and NBO analysis)
   Christopher J. Cramer and Donald G. Truhlar   : smd solvation model
   Lars Goerigk                                  : TD-DFT with DH, B97 family of functionals
   V. Asgeirsson, H. Jonsson                     : NEB implementation
   FAccTs GmbH                                   : IRC, NEB, NEB-TS, Multilevel


 Your calculation uses the libint2 library for the computation of 2-el integrals
 For citations please refer to: http://libint.valeyev.net

 This ORCA versions uses:
   CBLAS   interface :  Fast vector & matrix operations
   LAPACKE interface :  Fast linear algebra routines
   SCALAPACK package :  Parallel linear algebra routines




***************************************
The coordinates will be read from file: geom.xyz
***************************************


----- Orbital basis set information -----
Your calculation utilizes the basis: def2-SVP
   F. Weigend and R. Ahlrichs, Phys. Chem. Chem. Phys. 7, 3297 (2005).

----- AuxJ basis set information -----
Your calculation utilizes the auxiliary basis: def2/J
   F. Weigend, Phys. Chem. Chem. Phys. 8, 1057 (2006).

================================================================================
                                        WARNINGS
                       Please study these warnings very carefully!
================================================================================


WARNING: your system is open-shell and RHF/RKS was chosen
  ===> : WILL SWITCH to UHF/UKS


INFO   : the flag for use of LIBINT has been found!

================================================================================
                                       INPUT FILE
================================================================================
NAME = moess.inp
|  1> ! bp86 def2-svp
|  2> 
|  3> * xyzfile 0 6 geom.xyz
|  4> 
|  5> %eprnmr
|  6> nuclei = all Fe {fgrad, rho}
|  7> end
|  8> 
|  9> 
| 10>                          ****END OF INPUT****
================================================================================

                       ****************************
                       * Single Point Calculation *
                       ****************************

---------------------------------
CARTESIAN COORDINATES (ANGSTROEM)
---------------------------------
  Fe    -0.015751    0.097016    0.024342
  N     -1.502201   -1.206421    0.672424
  C     -2.866178   -0.973409    0.699710
  C     -3.572989   -2.221299    0.836411
  C     -2.632557   -3.213073    0.869505
  C     -1.343708   -2.576017    0.778822
  C     -0.118851   -3.238202    0.822875
  C      1.139470   -2.642334    0.791467
  C      2.391792   -3.351168    0.834592
  C      3.385632   -2.413922    0.779712
  C      2.746473   -1.125382    0.685160
  N      1.371738   -1.281559    0.707769
  C      3.412778    0.093247    0.574802
  C      2.812743    1.344536    0.419667
  C      3.518445    2.599433    0.362367
  C      2.575770    3.581606    0.226325
  C      1.291620    2.930388    0.203234
  N      1.451314    1.561944    0.317617
  C      0.067506    3.592601    0.137459
  C     -1.189793    2.996163    0.210994
  C     -2.438382    3.714419    0.244894
  C     -3.429157    2.783244    0.390718
  C     -2.788828    1.493389    0.446157
  N     -1.419040    1.635715    0.325026
  C     -3.460732    0.283502    0.611610
  O      0.035224   -0.218462   -1.850449
  O      0.496657   -2.336474   -2.486053
  C      0.226723   -1.165925   -2.759219
  C      0.082527   -0.631621   -4.176172
  H     -4.497258    2.941576    0.474441
  H     -2.533998    4.790765    0.173627
  H     -4.650030   -2.315141    0.897596
  H     -2.783655   -4.281284    0.959919
  H      2.489109   -4.427427    0.902778
  H      4.457354   -2.568995    0.781610
  H      2.721524    4.652365    0.154128
  H      4.593209    2.706809    0.435038
  H      0.831993    0.150314   -4.337039
  H     -0.902476   -0.169544   -4.297962
  H      0.216357   -1.421138   -4.916522
  H     -0.151199   -4.321364    0.892514
  H     -4.544017    0.328298    0.675175
  H      4.498012    0.067082    0.603893
  H      0.098512    4.675939    0.064020

----------------------------
CARTESIAN COORDINATES (A.U.)
----------------------------
  NO LB      ZA    FRAG     MASS         X           Y           Z
   0 Fe   26.0000    0    55.850   -0.029765    0.183334    0.046000
   1 N     7.0000    0    14.007   -2.838748   -2.279805    1.270697
   2 C     6.0000    0    12.011   -5.416291   -1.839476    1.322260
   3 C     6.0000    0    12.011   -6.751971   -4.197647    1.580588
   4 C     6.0000    0    12.011   -4.974812   -6.071828    1.643126
   5 C     6.0000    0    12.011   -2.539240   -4.867967    1.471760
   6 C     6.0000    0    12.011   -0.224596   -6.119315    1.555008
   7 C     6.0000    0    12.011    2.153286   -4.993288    1.495656
   8 C     6.0000    0    12.011    4.519832   -6.332790    1.577150
   9 C     6.0000    0    12.011    6.397917   -4.561651    1.473442
  10 C     6.0000    0    12.011    5.190082   -2.126664    1.294765
  11 N     7.0000    0    14.007    2.592209   -2.421796    1.337490
  12 C     6.0000    0    12.011    6.449216    0.176211    1.086218
  13 C     6.0000    0    12.011    5.315314    2.540805    0.793056
  14 C     6.0000    0    12.011    6.648897    4.912216    0.684774
  15 C     6.0000    0    12.011    4.867500    6.768254    0.427692
  16 C     6.0000    0    12.011    2.440808    5.537631    0.384057
  17 N     7.0000    0    14.007    2.742586    2.951646    0.600209
  18 C     6.0000    0    12.011    0.127568    6.789032    0.259760
  19 C     6.0000    0    12.011   -2.248383    5.661928    0.398721
  20 C     6.0000    0    12.011   -4.607874    7.019235    0.462783
  21 C     6.0000    0    12.011   -6.480168    5.259569    0.738350
  22 C     6.0000    0    12.011   -5.270121    2.822096    0.843115
  23 N     7.0000    0    14.007   -2.681597    3.091053    0.614210
  24 C     6.0000    0    12.011   -6.539836    0.535741    1.155775
  25 O     8.0000    0    15.999    0.066564   -0.412833   -3.496842
  26 O     8.0000    0    15.999    0.938546   -4.415296   -4.697959
  27 C     6.0000    0    12.011    0.428444   -2.203279   -5.214168
  28 C     6.0000    0    12.011    0.155953   -1.193591   -7.891821
  29 H     1.0000    0     1.008   -8.498586    5.558773    0.896564
  30 H     1.0000    0     1.008   -4.788562    9.053234    0.328107
  31 H     1.0000    0     1.008   -8.787283   -4.374982    1.696211
  32 H     1.0000    0     1.008   -5.260346   -8.090454    1.813984
  33 H     1.0000    0     1.008    4.703734   -8.366625    1.706003
  34 H     1.0000    0     1.008    8.423178   -4.854697    1.477029
  35 H     1.0000    0     1.008    5.142935    8.791696    0.291260
  36 H     1.0000    0     1.008    8.679907    5.115128    0.822103
  37 H     1.0000    0     1.008    1.572239    0.284052   -8.195816
  38 H     1.0000    0     1.008   -1.705432   -0.320392   -8.121971
  39 H     1.0000    0     1.008    0.408855   -2.685562   -9.290880
  40 H     1.0000    0     1.008   -0.285725   -8.166194    1.686607
  41 H     1.0000    0     1.008   -8.586948    0.620393    1.275896
  42 H     1.0000    0     1.008    8.500011    0.126767    1.141192
  43 H     1.0000    0     1.008    0.186161    8.836244    0.120980

--------------------------------
INTERNAL COORDINATES (ANGSTROEM)
--------------------------------
 Fe     0   0   0     0.000000000000     0.00000000     0.00000000
 N      1   0   0     2.080502798410     0.00000000     0.00000000
 C      2   1   0     1.384005915619   127.21376557     0.00000000
 C      3   2   1     1.440659017680   109.84971871   163.27985213
 C      4   3   2     1.367158815404   107.04816018   359.01735600
 C      2   1   3     1.382835409103   124.23455788   159.93251786
 C      6   2   1     1.393091637863   125.02895239    18.10907506
 C      7   6   2     1.392629482285   126.18148728     1.19037311
 C      8   7   6     1.439658222241   125.07426244   180.18572973
 C      9   8   7     1.367172200023   107.07384448   179.85063329
 C     10   9   8     1.441457470613   107.04449117   359.27448115
 N      8   7   6     1.382990375835   125.03757680   359.86063206
 C     11  10   9     1.393268775517   125.10025201   181.65697876
 C     13  11  10     1.396364218594   125.95009532   176.81731021
 C     14  13  11     1.440855677510   125.05806714   177.31008236
 C     15  14  13     1.368140118306   106.96120382   180.92143460
 C     16  15  14     1.440020590236   106.94078788     0.13106931
 N     14  13  11     1.382450492063   124.91099879   358.28441990
 C     17  16  15     1.393308111291   124.70075328   176.96918317
 C     19  17  16     1.393537390769   125.92751522   184.95315229
 C     20  19  17     1.440838430379   124.73167842   174.90887889
 C     21  20  19     1.367474540979   106.91272766   183.24257710
 C     22  21  20     1.441117841117   106.95648508     0.00000000
 N     23  22  21     1.382479140668   110.16558517   359.55532391
 C      3   2   1     1.393226948791   124.83474342   343.10694570
 O      1   2   3     1.901832304066   102.84408469   274.48120002
 O     26   1   2     2.258957213063   116.00030824   300.99556480
 C     27  26   1     1.231937088212    29.16119327   179.19025462
 C     28  27  26     1.521193299696   124.12844320   179.56124488
 H     22  21  20     1.083013531381   128.55349270   178.74951001
 H     21  20  19     1.082932184609   124.78030085     2.79097405
 H      4   3   2     1.082851439889   124.63952168   179.05515904
 H      5   4   3     1.082626453363   128.44664260   180.25382871
 H      9   8   7     1.082798856744   124.71227176   359.58298706
 H     10   9   8     1.082884704397   128.40353036   180.55141339
 H     16  15  14     1.083042691405   128.58305930   179.69462581
 H     15  14  13     1.082556388976   124.74819568   359.91534936
 H     29  28  27     1.094988502711   108.83152452   240.98424707
 H     29  28  27     1.094796267822   109.70352423   123.81343366
 H     29  28  27     1.090580434764   111.49561138     1.82953882
 H      7   6   2     1.085880242784   116.74245199   180.91431587
 H     25   3   2     1.086072549172   117.33291842   181.75960778
 H     13  11  10     1.085939099702   117.04723192   357.35207807
 H     19  17  16     1.086266947394   116.87937516     2.22012522

---------------------------
INTERNAL COORDINATES (A.U.)
---------------------------
 Fe     0   0   0     0.000000000000     0.00000000     0.00000000
 N      1   0   0     3.931580509852     0.00000000     0.00000000
 C      2   1   0     2.615392148247   127.21376557     0.00000000
 C      3   2   1     2.722450995779   109.84971871   163.27985213
 C      4   3   2     2.583555742689   107.04816018   359.01735600
 C      2   1   3     2.613180211494   124.23455788   159.93251786
 C      6   2   1     2.632561675016   125.02895239    18.10907506
 C      7   6   2     2.631688327543   126.18148728     1.19037311
 C      8   7   6     2.720559766483   125.07426244   180.18572973
 C      9   8   7     2.583581035954   107.07384448   179.85063329
 C     10   9   8     2.723959853153   107.04449117   359.27448115
 N      8   7   6     2.613473056177   125.03757680   359.86063206
 C     11  10   9     2.632896416671   125.10025201   181.65697876
 C     13  11  10     2.638745956351   125.95009532   176.81731021
 C     14  13  11     2.722822629000   125.05806714   177.31008236
 C     15  14  13     2.585410136429   106.96120382   180.92143460
 C     16  15  14     2.721244542755   106.94078788     0.13106931
 N     14  13  11     2.612452823704   124.91099879   358.28441990
 C     17  16  15     2.632970750512   124.70075328   176.96918317
 C     19  17  16     2.633404025932   125.92751522   184.95315229
 C     20  19  17     2.722790036645   124.73167842   174.90887889
 C     21  20  19     2.584152377560   106.91272766   183.24257710
 C     22  21  20     2.723318046420   106.95648508     0.00000000
 N     23  22  21     2.612506961721   110.16558517   359.55532391
 C      3   2   1     2.632817375613   124.83474342   343.10694570
 O      1   2   3     3.593942207330   102.84408469   274.48120002
 O     26   1   2     4.268810480935   116.00030824   300.99556480
 C     27  26   1     2.328023710942    29.16119327   179.19025462
 C     28  27  26     2.874638733182   124.12844320   179.56124488
 H     22  21  20     2.046598973641   128.55349270   178.74951001
 H     21  20  19     2.046445250519   124.78030085     2.79097405
 H      4   3   2     2.046292665113   124.63952168   179.05515904
 H      5   4   3     2.045867502194   128.44664260   180.25382871
 H      9   8   7     2.046193297369   124.71227176   359.58298706
 H     10   9   8     2.046355525923   128.40353036   180.55141339
 H     16  15  14     2.046654078101   128.58305930   179.69462581
 H     15  14  13     2.045735099692   124.74819568   359.91534936
 H     29  28  27     2.069228389917   108.83152452   240.98424707
 H     29  28  27     2.068865118624   109.70352423   123.81343366
 H     29  28  27     2.060898348716   111.49561138     1.82953882
 H      7   6   2     2.052016273098   116.74245199   180.91431587
 H     25   3   2     2.052379679506   117.33291842   181.75960778
 H     13  11  10     2.052127496554   117.04723192   357.35207807
 H     19  17  16     2.052747038906   116.87937516     2.22012522

---------------------
BASIS SET INFORMATION
---------------------
There are 5 groups of distinct atoms

 Group   1 Type Fe  : 14s9p5d1f contracted to 5s3p2d1f pattern {63311/531/41/1}
 Group   2 Type N   : 7s4p1d contracted to 3s2p1d pattern {511/31/1}
 Group   3 Type C   : 7s4p1d contracted to 3s2p1d pattern {511/31/1}
 Group   4 Type O   : 7s4p1d contracted to 3s2p1d pattern {511/31/1}
 Group   5 Type H   : 4s1p contracted to 2s1p pattern {31/1}

Atom   0Fe   basis set group =>   1
Atom   1N    basis set group =>   2
Atom   2C    basis set group =>   3
Atom   3C    basis set group =>   3
Atom   4C    basis set group =>   3
Atom   5C    basis set group =>   3
Atom   6C    basis set group =>   3
Atom   7C    basis set group =>   3
Atom   8C    basis set group =>   3
Atom   9C    basis set group =>   3
Atom  10C    basis set group =>   3
Atom  11N    basis set group =>   2
Atom  12C    basis set group =>   3
Atom  13C    basis set group =>   3
Atom  14C    basis set group =>   3
Atom  15C    basis set group =>   3
Atom  16C    basis set group =>   3
Atom  17N    basis set group =>   2
Atom  18C    basis set group =>   3
Atom  19C    basis set group =>   3
Atom  20C    basis set group =>   3
Atom  21C    basis set group =>   3
Atom  22C    basis set group =>   3
Atom  23N    basis set group =>   2
Atom  24C    basis set group =>   3
Atom  25O    basis set group =>   4
Atom  26O    basis set group =>   4
Atom  27C    basis set group =>   3
Atom  28C    basis set group =>   3
Atom  29H    basis set group =>   5
Atom  30H    basis set group =>   5
Atom  31H    basis set group =>   5
Atom  32H    basis set group =>   5
Atom  33H    basis set group =>   5
Atom  34H    basis set group =>   5
Atom  35H    basis set group =>   5
Atom  36H    basis set group =>   5
Atom  37H    basis set group =>   5
Atom  38H    basis set group =>   5
Atom  39H    basis set group =>   5
Atom  40H    basis set group =>   5
Atom  41H    basis set group =>   5
Atom  42H    basis set group =>   5
Atom  43H    basis set group =>   5
-------------------------------
AUXILIARY BASIS SET INFORMATION
-------------------------------
There are 5 groups of distinct atoms

 Group   1 Type Fe  : 19s5p5d3f3g contracted to 8s5p5d2f3g pattern {121111111/11111/11111/21/111}
 Group   2 Type N   : 12s5p4d2f1g contracted to 6s4p3d1f1g pattern {711111/2111/211/2/1}
 Group   3 Type C   : 12s5p4d2f1g contracted to 6s4p3d1f1g pattern {711111/2111/211/2/1}
 Group   4 Type O   : 12s5p4d2f1g contracted to 6s4p3d1f1g pattern {711111/2111/211/2/1}
 Group   5 Type H   : 5s2p1d contracted to 3s1p1d pattern {311/2/1}

Atom   0Fe   basis set group =>   1
Atom   1N    basis set group =>   2
Atom   2C    basis set group =>   3
Atom   3C    basis set group =>   3
Atom   4C    basis set group =>   3
Atom   5C    basis set group =>   3
Atom   6C    basis set group =>   3
Atom   7C    basis set group =>   3
Atom   8C    basis set group =>   3
Atom   9C    basis set group =>   3
Atom  10C    basis set group =>   3
Atom  11N    basis set group =>   2
Atom  12C    basis set group =>   3
Atom  13C    basis set group =>   3
Atom  14C    basis set group =>   3
Atom  15C    basis set group =>   3
Atom  16C    basis set group =>   3
Atom  17N    basis set group =>   2
Atom  18C    basis set group =>   3
Atom  19C    basis set group =>   3
Atom  20C    basis set group =>   3
Atom  21C    basis set group =>   3
Atom  22C    basis set group =>   3
Atom  23N    basis set group =>   2
Atom  24C    basis set group =>   3
Atom  25O    basis set group =>   4
Atom  26O    basis set group =>   4
Atom  27C    basis set group =>   3
Atom  28C    basis set group =>   3
Atom  29H    basis set group =>   5
Atom  30H    basis set group =>   5
Atom  31H    basis set group =>   5
Atom  32H    basis set group =>   5
Atom  33H    basis set group =>   5
Atom  34H    basis set group =>   5
Atom  35H    basis set group =>   5
Atom  36H    basis set group =>   5
Atom  37H    basis set group =>   5
Atom  38H    basis set group =>   5
Atom  39H    basis set group =>   5
Atom  40H    basis set group =>   5
Atom  41H    basis set group =>   5
Atom  42H    basis set group =>   5
Atom  43H    basis set group =>   5
------------------------------------------------------------------------------
                           ORCA GTO INTEGRAL CALCULATION
                           -- RI-GTO INTEGRALS CHOSEN --
------------------------------------------------------------------------------

                         BASIS SET STATISTICS AND STARTUP INFO

Gaussian basis set:
 # of primitive gaussian shells          ...  440
 # of primitive gaussian functions       ...  850
 # of contracted shells                  ...  224
 # of contracted basis functions         ...  498
 Highest angular momentum                ...    3
 Maximum contraction depth               ...    6
Auxiliary gaussian basis set:
 # of primitive gaussian shells          ...  827
 # of primitive gaussian functions       ... 2307
 # of contracted shells                  ...  518
 # of contracted aux-basis functions     ... 1626
 Highest angular momentum                ...    4
 Maximum contraction depth               ...   12
Ratio of auxiliary to basis functions    ...  3.27
Integral package used                  ... LIBINT
 One Electron integrals                  ... done
 Ordering auxiliary basis shells         ... done
 Integral threshhold             Thresh  ...  1.000e-10
 Primitive cut-off               TCut    ...  1.000e-11
 Pre-screening matrix                    ... done
 Shell pair data                         ... 
 Ordering of the shell pairs             ... done (   0.004 sec) 18573 of 25200 pairs
 Determination of significant pairs      ... done (   0.000 sec)
 Creation of shell pair data             ... done (   0.002 sec)
 Storage of shell pair data              ... done (   0.003 sec)
 Shell pair data done in (   0.009 sec)
 Computing two index integrals           ... done
 Cholesky decomposition of the V-matrix  ... done


Timings:
 Total evaluation time                   ...   0.481 sec (  0.008 min)
 One electron matrix time                ...   0.129 sec (  0.002 min) = 26.7%
 Schwartz matrix evaluation time         ...   0.219 sec (  0.004 min) = 45.5%
 Two index repulsion integral time       ...   0.049 sec (  0.001 min) = 10.2%
 Cholesky decomposition of V             ...   0.056 sec (  0.001 min) = 11.6%
 Three index repulsion integral time     ...   0.000 sec (  0.000 min) =  0.0%

-------------------------------------------------------------------------------
                                 ORCA SCF
-------------------------------------------------------------------------------

------------
SCF SETTINGS
------------
Hamiltonian:
 Density Functional     Method          .... DFT(GTOs)
 Exchange Functional    Exchange        .... B88
   X-Alpha parameter    XAlpha          ....  0.666667
   Becke's b parameter  XBeta           ....  0.004200
 Correlation Functional Correlation     .... P86
 LDA part of GGA corr.  LDAOpt          .... PW91-LDA
 Gradients option       PostSCFGGA      .... off
   Density functional embedding theory  .... OFF
 RI-approximation to the Coulomb term is turned on
   Number of auxiliary basis functions  .... 1626


General Settings:
 Integral files         IntName         .... moess
 Hartree-Fock type      HFTyp           .... UHF
 Total Charge           Charge          ....    0
 Multiplicity           Mult            ....    6
 Number of Electrons    NEL             ....  217
 Basis Dimension        Dim             ....  498
 Nuclear Repulsion      ENuc            ....   3269.9159026250 Eh

Convergence Acceleration:
 DIIS                   CNVDIIS         .... on
   Start iteration      DIISMaxIt       ....    12
   Startup error        DIISStart       ....  0.200000
   # of expansion vecs  DIISMaxEq       ....     5
   Bias factor          DIISBfac        ....   1.050
   Max. coefficient     DIISMaxC        ....  10.000
 Newton-Raphson         CNVNR           .... off
 SOSCF                  CNVSOSCF        .... off
 Level Shifting         CNVShift        .... on
   Level shift para.    LevelShift      ....    0.2500
   Turn off err/grad.   ShiftErr        ....    0.0010
 Zerner damping         CNVZerner       .... off
 Static damping         CNVDamp         .... on
   Fraction old density DampFac         ....    0.7000
   Max. Damping (<1)    DampMax         ....    0.9800
   Min. Damping (>=0)   DampMin         ....    0.0000
   Turn off err/grad.   DampErr         ....    0.1000
 Fernandez-Rico         CNVRico         .... off

SCF Procedure:
 Maximum # iterations   MaxIter         ....   125
 SCF integral mode      SCFMode         .... Direct
   Integral package                     .... LIBINT
 Reset frequency        DirectResetFreq ....    20
 Integral Threshold     Thresh          ....  1.000e-10 Eh
 Primitive CutOff       TCut            ....  1.000e-11 Eh

Convergence Tolerance:
 Convergence Check Mode ConvCheckMode   .... Total+1el-Energy
 Convergence forced     ConvForced      .... 0
 Energy Change          TolE            ....  1.000e-06 Eh
 1-El. energy change                    ....  1.000e-03 Eh
 DIIS Error             TolErr          ....  1.000e-06


Diagonalization of the overlap matrix:
Smallest eigenvalue                        ... 4.111e-04
Time for diagonalization                   ...    0.033 sec
Threshold for overlap eigenvalues          ... 1.000e-08
Number of eigenvalues below threshold      ... 0
Time for construction of square roots      ...    0.018 sec
Total time needed                          ...    0.052 sec

-------------------
DFT GRID GENERATION
-------------------

General Integration Accuracy     IntAcc      ...  4.340
Radial Grid Type                 RadialGrid  ... Gauss-Chebyshev
Angular Grid (max. acc.)         AngularGrid ... Lebedev-110
Angular grid pruning method      GridPruning ... 3 (G Style)
Weight generation scheme         WeightScheme... Becke
Basis function cutoff            BFCut       ...    1.0000e-10
Integration weight cutoff        WCut        ...    1.0000e-14
Grids for H and He will be reduced by one unit

# of grid points (after initial pruning)     ...  61494 (   0.0 sec)
# of grid points (after weights+screening)   ...  54404 (   0.5 sec)
nearest neighbour list constructed           ...    0.0 sec
Grid point re-assignment to atoms done       ...    0.0 sec
Grid point division into batches done        ...    0.0 sec
Reduced shell lists constructed in    0.7 sec

Total number of grid points                  ...    54404
Total number of batches                      ...      872
Average number of points per batch           ...       62
Average number of grid points per atom       ...     1236
Average number of shells per batch           ...    97.33 (43.45%)
Average number of basis functions per batch  ...   203.63 (40.89%)
Average number of large shells per batch     ...    57.75 (59.33%)
Average number of large basis fcns per batch ...   123.53 (60.66%)
Maximum spatial batch extension              ...  22.76, 19.23, 22.41 au
Average spatial batch extension              ...   3.29,  3.18,  4.08 au

Time for grid setup =    1.273 sec

------------------------------
INITIAL GUESS: MODEL POTENTIAL
------------------------------
Loading Hartree-Fock densities                     ... done
Calculating cut-offs                               ... done
Setting up the integral package                    ... done
Initializing the effective Hamiltonian             ... done
Starting the Coulomb interaction                   ... done (   1.5 sec)
Reading the grid                                   ... done
Mapping shells                                     ... done
Starting the XC term evaluation                    ... done (   1.0 sec)
  promolecular density results
     # of electrons  =    217.059096268
     EX              =   -214.749143331
     EC              =     -8.400362958
     EX+EC           =   -223.149506289
Transforming the Hamiltonian                       ... done (   0.0 sec)
Diagonalizing the Hamiltonian                      ... done (   0.0 sec)
Back transforming the eigenvectors                 ... done (   0.0 sec)
Now organizing SCF variables                       ... done
                      ------------------
                      INITIAL GUESS DONE (   3.9 sec)
                      ------------------
--------------
SCF ITERATIONS
--------------
ITER       Energy         Delta-E        Max-DP      RMS-DP      [F,P]     Damp
               ***  Starting incremental Fock matrix formation  ***
  0  -2478.4140221067   0.000000000000 0.31132732  0.00164786  0.4711536 0.7000
  1  -2478.9581123984  -0.544090291617 0.17052537  0.00102546  0.2346843 0.7000
                               ***Turning on DIIS***
  2  -2479.0738235028  -0.115711104480 0.58197140  0.00272689  0.0997262 0.0000
  3  -2473.7509181574   5.322905345403 0.04131715  0.00023062  1.6375881 0.7000
  4  -2474.1349147576  -0.383996600114 0.04098415  0.00023396  1.5860562 0.7000
  5  -2474.5210326804  -0.386117922855 0.03287585  0.00019500  1.5317135 0.7000
  6  -2474.8491901950  -0.328157514548 0.02471359  0.00015437  1.4839254 0.7000
  7  -2475.1197383615  -0.270548166521 0.56199633  0.00363518  1.4437451 0.7000
  8  -2478.4757255502  -3.355987188763 0.41018100  0.00179809  0.1786756 0.7000
  9  -2477.5727148618   0.903010688489 0.29445576  0.00138404  0.3396138 0.7000
 10  -2477.8649192724  -0.292204410680 0.20594490  0.00099910  0.3302891 0.7000
 11  -2478.3742445317  -0.509325259235 0.14378615  0.00069016  0.3442469 0.7000
 12  -2478.7398946653  -0.365650133602 0.09983313  0.00048366  0.3407966 0.7000
 13  -2478.7340926417   0.005802023549 0.21129253  0.00102629  0.3911989 0.7000
 14  -2479.3203790872  -0.586286445492 0.12151065  0.00062085  0.1540519 0.7000
 15  -2478.6971521734   0.623226913795 0.07641254  0.00044046  0.4935208 0.7000
 16  -2477.9528724924   0.744279681041 0.04824793  0.00034361  0.7358394 0.7000
 17  -2477.4485521818   0.504320310564 0.03083733  0.00031371  0.8993338 0.7000
 18  -2477.2572147358   0.191337445988 0.02255939  0.00027946  0.9873279 0.7000
 19  -2477.2567234906   0.000491245256 0.10318650  0.00066454  1.0230873 0.7000
               *** Restarting incremental Fock matrix formation ***
                                   *** Resetting DIIS ***
 20  -2478.2779494517  -1.021225961081 0.19903553  0.00163953  0.7444088 0.7000
 21  -2479.0816541885  -0.803704736894 0.12057964  0.00082541  0.1450332 0.7000
 22  -2478.2486084446   0.833045743909 0.07621533  0.00060893  0.4033566 0.7000
 23  -2478.2392916790   0.009316765656 0.07616250  0.00049378  0.4185981 0.7000
 24  -2478.7687239930  -0.529432313985 0.06874381  0.00036652  0.3565064 0.7000
 25  -2479.1732891068  -0.404565113833 0.04789463  0.00027280  0.2767297 0.7000
 26  -2479.3790489085  -0.205759801705 0.06627338  0.00035963  0.2371968 0.7000
 27  -2479.6214901313  -0.242441222785 0.14782998  0.00076764  0.0958968 0.0000
 28  -2479.7930436919  -0.171553560613 0.00738680  0.00005634  0.1285025 0.7000
 29  -2479.8068289779  -0.013785285998 0.01063337  0.00007462  0.1119584 0.7000
 30  -2479.8231045748  -0.016275596947 0.04047547  0.00027163  0.0900093 0.0000
 31  -2479.8618303407  -0.038725765820 0.01311478  0.00012987  0.0149738 0.0000
 32  -2479.8664202648  -0.004589924167 0.01117635  0.00008354  0.0100261 0.0000
 33  -2479.8687196122  -0.002299347356 0.00681743  0.00006461  0.0065832 0.0000
 34  -2479.8698212670  -0.001101654815 0.00492799  0.00004982  0.0068995 0.0000
 35  -2479.8706162246  -0.000794957606 0.00382177  0.00004445  0.0036654 0.0000
 36  -2479.8711013388  -0.000485114211 0.00318118  0.00003037  0.0019401 0.0000
 37  -2479.8714219453  -0.000320606463 0.00268787  0.00002530  0.0017531 0.0000
 38  -2479.8716526003  -0.000230654969 0.00210382  0.00002235  0.0010255 0.0000
 39  -2479.8718143537  -0.000161753454 0.01750520  0.00013629  0.0009775 0.0000
               *** Restarting incremental Fock matrix formation ***
                                   *** Resetting DIIS ***
 40  -2479.8722786366  -0.000464282932 0.00101808  0.00001090  0.0012290 0.0000
 41  -2479.8722716663   0.000006970368 0.00040120  0.00000462  0.0019499 0.0000
 42  -2479.8722841933  -0.000012527065 0.00021620  0.00000345  0.0006845 0.0000
 43  -2479.8722860167  -0.000001823331 0.00027945  0.00000217  0.0002142 0.0000
 44  -2479.8722855825   0.000000434197 0.00028464  0.00000157  0.0003406 0.0000
 45  -2479.8722860785  -0.000000496014 0.00015491  0.00000090  0.0001660 0.0000
 46  -2479.8722861682  -0.000000089738 0.00006049  0.00000044  0.0000804 0.0000
 47  -2479.8722861991  -0.000000030915 0.00002241  0.00000021  0.0000316 0.0000
                 **** Energy Check signals convergence ****

               *****************************************************
               *                     SUCCESS                       *
               *           SCF CONVERGED AFTER  48 CYCLES          *
               *****************************************************

Setting up the final grid:

General Integration Accuracy     IntAcc      ...  4.670
Radial Grid Type                 RadialGrid  ... Gauss-Chebyshev
Angular Grid (max. acc.)         AngularGrid ... Lebedev-302
Angular grid pruning method      GridPruning ... 3 (G Style)
Weight generation scheme         WeightScheme... Becke
Basis function cutoff            BFCut       ...    1.0000e-10
Integration weight cutoff        WCut        ...    1.0000e-14
Grids for H and He will be reduced by one unit

# of grid points (after initial pruning)     ... 234486 (   0.1 sec)
# of grid points (after weights+screening)   ... 202994 (   2.1 sec)
nearest neighbour list constructed           ...    0.0 sec
Grid point re-assignment to atoms done       ...    0.0 sec
Grid point division into batches done        ...    0.7 sec
Reduced shell lists constructed in    2.8 sec

Total number of grid points                  ...   202994
Total number of batches                      ...     3197
Average number of points per batch           ...       63
Average number of grid points per atom       ...     4614
Average number of shells per batch           ...    86.74 (38.72%)
Average number of basis functions per batch  ...   179.98 (36.14%)
Average number of large shells per batch     ...    50.71 (58.47%)
Average number of large basis fcns per batch ...   107.51 (59.74%)
Maximum spatial batch extension              ...  18.73, 19.32, 22.78 au
Average spatial batch extension              ...   2.16,  2.15,  2.40 au

Final grid set up in    5.0 sec
Final integration                            ... done (   6.8 sec)
Change in XC energy                          ...     0.002834757
Integrated number of electrons               ...   217.000097376
Previous integrated no of electrons          ...   217.036913098

----------------
TOTAL SCF ENERGY
----------------

Total Energy       :        -2479.86945133 Eh          -67480.67842 eV

Components:
Nuclear Repulsion  :         3269.91590262 Eh           88978.93531 eV
Electronic Energy  :        -5749.78535396 Eh         -156459.61373 eV
One Electron Energy:        -9906.31521287 Eh         -269564.54134 eV
Two Electron Energy:         4156.52985892 Eh          113104.92760 eV

Virial components:
Potential Energy   :        -4944.00292675 Eh         -134533.15917 eV
Kinetic Energy     :         2464.13347542 Eh           67052.48075 eV
Virial Ratio       :            2.00638601


DFT components:
N(Alpha)           :      111.000049299870 electrons
N(Beta)            :      106.000048076588 electrons
N(Total)           :      217.000097376458 electrons
E(X)               :     -217.114325448678 Eh       
E(C)               :       -8.393784073130 Eh       
E(XC)              :     -225.508109521808 Eh       
DFET-embed. en.    :        0.000000000000 Eh       

---------------
SCF CONVERGENCE
---------------

  Last Energy change         ...    1.1145e-07  Tolerance :   1.0000e-06
  Last MAX-Density change    ...    7.1235e-06  Tolerance :   1.0000e-05
  Last RMS-Density change    ...    8.5195e-08  Tolerance :   1.0000e-06
  Last DIIS Error            ...    1.2291e-05  Tolerance :   1.0000e-06

             **** THE GBW FILE WAS UPDATED (moess.gbw) ****
             **** DENSITY FILE WAS UPDATED (moess.scfp.tmp) ****
             **** ENERGY FILE WAS UPDATED (moess.en.tmp) ****
----------------------
UHF SPIN CONTAMINATION
----------------------

Warning: in a DFT calculation there is little theoretical justification to 
         calculate <S**2> as in Hartree-Fock theory. We will do it anyways
         but you should keep in mind that the values have only limited relevance

Expectation value of <S**2>     :     8.756077
Ideal value S*(S+1) for S=2.5   :     8.750000
Deviation                       :     0.006077

----------------
ORBITAL ENERGIES
----------------
                 SPIN UP ORBITALS
  NO   OCC          E(Eh)            E(eV) 
   0   1.0000    -254.885514     -6935.7875 
   1   1.0000     -29.676355      -807.5347 
   2   1.0000     -25.620070      -697.1576 
   3   1.0000     -25.619404      -697.1394 
   4   1.0000     -25.616281      -697.0544 
   5   1.0000     -18.773852      -510.8625 
   6   1.0000     -18.736393      -509.8432 
   7   1.0000     -14.025801      -381.6614 
   8   1.0000     -14.025763      -381.6604 
   9   1.0000     -14.025740      -381.6598 
  10   1.0000     -14.025110      -381.6426 
  11   1.0000     -10.005517      -272.2640 
  12   1.0000      -9.955459      -270.9018 
  13   1.0000      -9.955268      -270.8966 
  14   1.0000      -9.955206      -270.8949 
  15   1.0000      -9.955110      -270.8923 
  16   1.0000      -9.954966      -270.8884 
  17   1.0000      -9.954568      -270.8776 
  18   1.0000      -9.953941      -270.8605 
  19   1.0000      -9.953088      -270.8373 
  20   1.0000      -9.932162      -270.2679 
  21   1.0000      -9.931934      -270.2617 
  22   1.0000      -9.931906      -270.2609 
  23   1.0000      -9.929642      -270.1993 
  24   1.0000      -9.924075      -270.0478 
  25   1.0000      -9.924021      -270.0463 
  26   1.0000      -9.923760      -270.0392 
  27   1.0000      -9.923676      -270.0369 
  28   1.0000      -9.923423      -270.0301 
  29   1.0000      -9.922855      -270.0146 
  30   1.0000      -9.921806      -269.9861 
  31   1.0000      -9.921086      -269.9665 
  32   1.0000      -9.901128      -269.4234 
  33   1.0000      -3.423157       -93.1488 
  34   1.0000      -2.238555       -60.9142 
  35   1.0000      -2.237170       -60.8765 
  36   1.0000      -2.230587       -60.6973 
  37   1.0000      -0.944831       -25.7102 
  38   1.0000      -0.885169       -24.0867 
  39   1.0000      -0.877235       -23.8708 
  40   1.0000      -0.876404       -23.8482 
  41   1.0000      -0.868165       -23.6240 
  42   1.0000      -0.862608       -23.4728 
  43   1.0000      -0.745912       -20.2973 
  44   1.0000      -0.721558       -19.6346 
  45   1.0000      -0.721047       -19.6207 
  46   1.0000      -0.703476       -19.1425 
  47   1.0000      -0.697843       -18.9893 
  48   1.0000      -0.697215       -18.9722 
  49   1.0000      -0.693921       -18.8825 
  50   1.0000      -0.676368       -18.4049 
  51   1.0000      -0.652675       -17.7602 
  52   1.0000      -0.645986       -17.5782 
  53   1.0000      -0.597267       -16.2525 
  54   1.0000      -0.596922       -16.2431 
  55   1.0000      -0.544844       -14.8260 
  56   1.0000      -0.527065       -14.3422 
  57   1.0000      -0.524004       -14.2589 
  58   1.0000      -0.523458       -14.2440 
  59   1.0000      -0.521741       -14.1973 
  60   1.0000      -0.499805       -13.6004 
  61   1.0000      -0.497434       -13.5359 
  62   1.0000      -0.487065       -13.2537 
  63   1.0000      -0.478134       -13.0107 
  64   1.0000      -0.477516       -12.9939 
  65   1.0000      -0.472366       -12.8537 
  66   1.0000      -0.454144       -12.3579 
  67   1.0000      -0.453763       -12.3475 
  68   1.0000      -0.410892       -11.1809 
  69   1.0000      -0.407323       -11.0838 
  70   1.0000      -0.400500       -10.8982 
  71   1.0000      -0.396181       -10.7806 
  72   1.0000      -0.395134       -10.7521 
  73   1.0000      -0.386977       -10.5302 
  74   1.0000      -0.386811       -10.5257 
  75   1.0000      -0.384336       -10.4583 
  76   1.0000      -0.383209       -10.4276 
  77   1.0000      -0.381346       -10.3770 
  78   1.0000      -0.377425       -10.2703 
  79   1.0000      -0.377032       -10.2596 
  80   1.0000      -0.373499       -10.1634 
  81   1.0000      -0.361490        -9.8366 
  82   1.0000      -0.360838        -9.8189 
  83   1.0000      -0.356765        -9.7081 
  84   1.0000      -0.355562        -9.6753 
  85   1.0000      -0.351685        -9.5698 
  86   1.0000      -0.344070        -9.3626 
  87   1.0000      -0.343328        -9.3424 
  88   1.0000      -0.341359        -9.2888 
  89   1.0000      -0.336226        -9.1492 
  90   1.0000      -0.335056        -9.1173 
  91   1.0000      -0.333996        -9.0885 
  92   1.0000      -0.329076        -8.9546 
  93   1.0000      -0.315832        -8.5942 
  94   1.0000      -0.315153        -8.5757 
  95   1.0000      -0.302687        -8.2365 
  96   1.0000      -0.293507        -7.9867 
  97   1.0000      -0.281538        -7.6610 
  98   1.0000      -0.275034        -7.4841 
  99   1.0000      -0.265636        -7.2283 
 100   1.0000      -0.265011        -7.2113 
 101   1.0000      -0.244658        -6.6575 
 102   1.0000      -0.233270        -6.3476 
 103   1.0000      -0.229692        -6.2502 
 104   1.0000      -0.228305        -6.2125 
 105   1.0000      -0.227038        -6.1780 
 106   1.0000      -0.217571        -5.9204 
 107   1.0000      -0.197582        -5.3765 
 108   1.0000      -0.194928        -5.3043 
 109   1.0000      -0.184537        -5.0215 
 110   1.0000      -0.183227        -4.9859 
 111   0.0000      -0.116222        -3.1626 
 112   0.0000      -0.115507        -3.1431 
 113   0.0000      -0.067248        -1.8299 
 114   0.0000      -0.002653        -0.0722 
 115   0.0000      -0.000534        -0.0145 
 116   0.0000       0.012335         0.3357 
 117   0.0000       0.013320         0.3625 
 118   0.0000       0.025996         0.7074 
 119   0.0000       0.032181         0.8757 
 120   0.0000       0.050232         1.3669 
 121   0.0000       0.052729         1.4348 
 122   0.0000       0.053545         1.4570 
 123   0.0000       0.063024         1.7150 
 124   0.0000       0.070742         1.9250 
 125   0.0000       0.071274         1.9395 
 126   0.0000       0.074154         2.0178 
 127   0.0000       0.076221         2.0741 
 128   0.0000       0.077657         2.1131 
 129   0.0000       0.084798         2.3075 
 130   0.0000       0.085003         2.3131 
 131   0.0000       0.088921         2.4197 
 132   0.0000       0.097058         2.6411 
 133   0.0000       0.104278         2.8375 
 134   0.0000       0.118964         3.2372 
 135   0.0000       0.119662         3.2562 
 136   0.0000       0.123905         3.3716 
 137   0.0000       0.132142         3.5958 
 138   0.0000       0.134973         3.6728 
 139   0.0000       0.150305         4.0900 
 140   0.0000       0.152688         4.1549 
 141   0.0000       0.154631         4.2077 
 142   0.0000       0.163572         4.4510 
 143   0.0000       0.170561         4.6412 
 144   0.0000       0.183420         4.9911 
 145   0.0000       0.185728         5.0539 
 146   0.0000       0.189711         5.1623 
 147   0.0000       0.190499         5.1837 
 148   0.0000       0.192213         5.2304 
 149   0.0000       0.213090         5.7985 
 150   0.0000       0.214346         5.8326 
 151   0.0000       0.215800         5.8722 
 152   0.0000       0.217240         5.9114 
 153   0.0000       0.248107         6.7513 
 154   0.0000       0.254637         6.9290 
 155   0.0000       0.260969         7.1013 
 156   0.0000       0.274458         7.4684 
 157   0.0000       0.283399         7.7117 
 158   0.0000       0.286956         7.8085 
 159   0.0000       0.287409         7.8208 
 160   0.0000       0.288788         7.8583 
 161   0.0000       0.297228         8.0880 
 162   0.0000       0.311321         8.4715 
 163   0.0000       0.316726         8.6186 
 164   0.0000       0.319775         8.7015 
 165   0.0000       0.331927         9.0322 
 166   0.0000       0.339585         9.2406 
 167   0.0000       0.340119         9.2551 
 168   0.0000       0.348035         9.4705 
 169   0.0000       0.360737         9.8162 
 170   0.0000       0.363530         9.8922 
 171   0.0000       0.369612        10.0577 
 172   0.0000       0.372729        10.1425 
 173   0.0000       0.373956        10.1759 
 174   0.0000       0.376432        10.2432 
 175   0.0000       0.377524        10.2729 
 176   0.0000       0.381431        10.3793 
 177   0.0000       0.383031        10.4228 
 178   0.0000       0.387484        10.5440 
 179   0.0000       0.389269        10.5925 
 180   0.0000       0.393219        10.7000 
 181   0.0000       0.398977        10.8567 
 182   0.0000       0.419242        11.4081 
 183   0.0000       0.423171        11.5151 
 184   0.0000       0.426595        11.6082 
 185   0.0000       0.428186        11.6515 
 186   0.0000       0.430343        11.7102 
 187   0.0000       0.437627        11.9084 
 188   0.0000       0.440433        11.9848 
 189   0.0000       0.443566        12.0700 
 190   0.0000       0.445103        12.1119 
 191   0.0000       0.448068        12.1926 
 192   0.0000       0.451187        12.2774 
 193   0.0000       0.463148        12.6029 
 194   0.0000       0.464835        12.6488 
 195   0.0000       0.465446        12.6654 
 196   0.0000       0.474356        12.9079 
 197   0.0000       0.476174        12.9574 
 198   0.0000       0.489348        13.3158 
 199   0.0000       0.490365        13.3435 
 200   0.0000       0.495333        13.4787 
 201   0.0000       0.500053        13.6071 
 202   0.0000       0.502463        13.6727 
 203   0.0000       0.503509        13.7012 
 204   0.0000       0.517228        14.0745 
 205   0.0000       0.521216        14.1830 
 206   0.0000       0.529022        14.3954 
 207   0.0000       0.535359        14.5679 
 208   0.0000       0.545050        14.8316 
 209   0.0000       0.548226        14.9180 
 210   0.0000       0.554141        15.0789 
 211   0.0000       0.568831        15.4787 
 212   0.0000       0.574242        15.6259 
 213   0.0000       0.585960        15.9448 
 214   0.0000       0.588863        16.0238 
 215   0.0000       0.590810        16.0768 
 216   0.0000       0.591326        16.0908 
 217   0.0000       0.599126        16.3030 
 218   0.0000       0.600999        16.3540 
 219   0.0000       0.603027        16.4092 
 220   0.0000       0.614794        16.7294 
 221   0.0000       0.621392        16.9089 
 222   0.0000       0.622362        16.9353 
 223   0.0000       0.623455        16.9651 
 224   0.0000       0.630993        17.1702 
 225   0.0000       0.632781        17.2189 
 226   0.0000       0.634150        17.2561 
 227   0.0000       0.634703        17.2712 
 228   0.0000       0.640020        17.4158 
 229   0.0000       0.643926        17.5221 
 230   0.0000       0.645804        17.5732 
 231   0.0000       0.650202        17.6929 
 232   0.0000       0.654575        17.8119 
 233   0.0000       0.655979        17.8501 
 234   0.0000       0.665925        18.1207 
 235   0.0000       0.668608        18.1937 
 236   0.0000       0.671636        18.2761 
 237   0.0000       0.680901        18.5283 
 238   0.0000       0.687449        18.7064 
 239   0.0000       0.690315        18.7844 
 240   0.0000       0.691175        18.8078 
 241   0.0000       0.693884        18.8815 
 242   0.0000       0.695331        18.9209 
 243   0.0000       0.704107        19.1597 
 244   0.0000       0.705653        19.2018 
 245   0.0000       0.711006        19.3475 
 246   0.0000       0.722540        19.6613 
 247   0.0000       0.730061        19.8660 
 248   0.0000       0.764478        20.8025 
 249   0.0000       0.773450        21.0466 
 250   0.0000       0.778870        21.1941 
 251   0.0000       0.801310        21.8048 
 252   0.0000       0.801935        21.8218 
 253   0.0000       0.818013        22.2593 
 254   0.0000       0.823742        22.4152 
 255   0.0000       0.835363        22.7314 
 256   0.0000       0.861616        23.4458 
 257   0.0000       0.868180        23.6244 
 258   0.0000       0.905708        24.6456 
 259   0.0000       0.908121        24.7112 
 260   0.0000       0.911532        24.8040 
 261   0.0000       0.932527        25.3753 
 262   0.0000       0.934487        25.4287 
 263   0.0000       0.936943        25.4955 
 264   0.0000       0.952228        25.9114 
 265   0.0000       0.961120        26.1534 
 266   0.0000       0.980925        26.6923 
 267   0.0000       0.990207        26.9449 
 268   0.0000       0.996329        27.1115 
 269   0.0000       1.018751        27.7216 
 270   0.0000       1.025011        27.8920 
 271   0.0000       1.039503        28.2863 
 272   0.0000       1.046397        28.4739 
 273   0.0000       1.069050        29.0903 
 274   0.0000       1.069639        29.1064 
 275   0.0000       1.074493        29.2384 
 276   0.0000       1.081945        29.4412 
 277   0.0000       1.085986        29.5512 
 278   0.0000       1.093132        29.7456 
 279   0.0000       1.098838        29.9009 
 280   0.0000       1.102955        30.0129 
 281   0.0000       1.106437        30.1077 
 282   0.0000       1.110549        30.2196 
 283   0.0000       1.115024        30.3413 
 284   0.0000       1.128211        30.7002 
 285   0.0000       1.137252        30.9462 
 286   0.0000       1.139984        31.0205 
 287   0.0000       1.149851        31.2890 
 288   0.0000       1.153838        31.3975 
 289   0.0000       1.167429        31.7674 
 290   0.0000       1.170019        31.8378 
 291   0.0000       1.183236        32.1975 
 292   0.0000       1.187708        32.3192 
 293   0.0000       1.197769        32.5930 
 294   0.0000       1.200453        32.6660 
 295   0.0000       1.209755        32.9191 
 296   0.0000       1.211606        32.9695 
 297   0.0000       1.222706        33.2715 
 298   0.0000       1.226068        33.3630 
 299   0.0000       1.232100        33.5272 
 300   0.0000       1.233534        33.5662 
 301   0.0000       1.234801        33.6006 
 302   0.0000       1.244753        33.8714 
 303   0.0000       1.253026        34.0966 
 304   0.0000       1.258844        34.2549 
 305   0.0000       1.273026        34.6408 
 306   0.0000       1.278458        34.7886 
 307   0.0000       1.283048        34.9135 
 308   0.0000       1.294389        35.2221 
 309   0.0000       1.301548        35.4169 
 310   0.0000       1.301749        35.4224 
 311   0.0000       1.311601        35.6905 
 312   0.0000       1.317698        35.8564 
 313   0.0000       1.354222        36.8503 
 314   0.0000       1.383912        37.6582 
 315   0.0000       1.394295        37.9407 
 316   0.0000       1.405197        38.2374 
 317   0.0000       1.414629        38.4940 
 318   0.0000       1.458752        39.6947 
 319   0.0000       1.466455        39.9043 
 320   0.0000       1.469393        39.9842 
 321   0.0000       1.484974        40.4082 
 322   0.0000       1.501492        40.8577 
 323   0.0000       1.516535        41.2670 
 324   0.0000       1.522593        41.4319 
 325   0.0000       1.532905        41.7125 
 326   0.0000       1.540456        41.9179 
 327   0.0000       1.546641        42.0862 
 328   0.0000       1.557360        42.3779 
 329   0.0000       1.565289        42.5937 
 330   0.0000       1.566675        42.6314 
 331   0.0000       1.578559        42.9548 
 332   0.0000       1.584945        43.1286 
 333   0.0000       1.592573        43.3361 
 334   0.0000       1.603430        43.6315 
 335   0.0000       1.610818        43.8326 
 336   0.0000       1.618273        44.0354 
 337   0.0000       1.620004        44.0825 
 338   0.0000       1.622416        44.1482 
 339   0.0000       1.650460        44.9113 
 340   0.0000       1.676324        45.6151 
 341   0.0000       1.678616        45.6775 
 342   0.0000       1.679202        45.6934 
 343   0.0000       1.682265        45.7767 
 344   0.0000       1.688482        45.9459 
 345   0.0000       1.689456        45.9724 
 346   0.0000       1.692387        46.0522 
 347   0.0000       1.701737        46.3066 
 348   0.0000       1.711767        46.5795 
 349   0.0000       1.717774        46.7430 
 350   0.0000       1.718997        46.7763 
 351   0.0000       1.729923        47.0736 
 352   0.0000       1.736583        47.2548 
 353   0.0000       1.739961        47.3467 
 354   0.0000       1.742459        47.4147 
 355   0.0000       1.744599        47.4729 
 356   0.0000       1.747188        47.5434 
 357   0.0000       1.765509        48.0419 
 358   0.0000       1.794984        48.8440 
 359   0.0000       1.796532        48.8861 
 360   0.0000       1.818538        49.4849 
 361   0.0000       1.821116        49.5551 
 362   0.0000       1.831540        49.8387 
 363   0.0000       1.834035        49.9066 
 364   0.0000       1.834378        49.9160 
 365   0.0000       1.837290        49.9952 
 366   0.0000       1.838619        50.0314 
 367   0.0000       1.847096        50.2620 
 368   0.0000       1.852739        50.4156 
 369   0.0000       1.874127        50.9976 
 370   0.0000       1.877988        51.1026 
 371   0.0000       1.883668        51.2572 
 372   0.0000       1.891278        51.4643 
 373   0.0000       1.892406        51.4950 
 374   0.0000       1.900243        51.7082 
 375   0.0000       1.929374        52.5009 
 376   0.0000       1.949117        53.0382 
 377   0.0000       1.951648        53.1070 
 378   0.0000       1.951992        53.1164 
 379   0.0000       1.966199        53.5030 
 380   0.0000       1.972670        53.6791 
 381   0.0000       1.975229        53.7487 
 382   0.0000       1.977820        53.8192 
 383   0.0000       1.986121        54.0451 
 384   0.0000       1.987113        54.0721 
 385   0.0000       2.007229        54.6195 
 386   0.0000       2.009114        54.6708 
 387   0.0000       2.013616        54.7933 
 388   0.0000       2.030581        55.2549 
 389   0.0000       2.048313        55.7374 
 390   0.0000       2.055512        55.9333 
 391   0.0000       2.065603        56.2079 
 392   0.0000       2.067911        56.2707 
 393   0.0000       2.071500        56.3684 
 394   0.0000       2.080913        56.6245 
 395   0.0000       2.081672        56.6452 
 396   0.0000       2.087397        56.8010 
 397   0.0000       2.090514        56.8858 
 398   0.0000       2.116875        57.6031 
 399   0.0000       2.117993        57.6335 
 400   0.0000       2.124963        57.8232 
 401   0.0000       2.129569        57.9485 
 402   0.0000       2.137268        58.1580 
 403   0.0000       2.161143        58.8077 
 404   0.0000       2.186156        59.4883 
 405   0.0000       2.186867        59.5077 
 406   0.0000       2.202084        59.9217 
 407   0.0000       2.209202        60.1154 
 408   0.0000       2.213042        60.2199 
 409   0.0000       2.222586        60.4796 
 410   0.0000       2.225970        60.5717 
 411   0.0000       2.228768        60.6479 
 412   0.0000       2.268840        61.7383 
 413   0.0000       2.279449        62.0270 
 414   0.0000       2.280494        62.0554 
 415   0.0000       2.286429        62.2169 
 416   0.0000       2.288792        62.2812 
 417   0.0000       2.301633        62.6306 
 418   0.0000       2.311934        62.9109 
 419   0.0000       2.315494        63.0078 
 420   0.0000       2.365254        64.3618 
 421   0.0000       2.387901        64.9781 
 422   0.0000       2.404287        65.4240 
 423   0.0000       2.421087        65.8811 
 424   0.0000       2.422207        65.9116 
 425   0.0000       2.436340        66.2962 
 426   0.0000       2.457853        66.8816 
 427   0.0000       2.466931        67.1286 
 428   0.0000       2.467278        67.1380 
 429   0.0000       2.469456        67.1973 
 430   0.0000       2.502295        68.0909 
 431   0.0000       2.516978        68.4905 
 432   0.0000       2.530277        68.8523 
 433   0.0000       2.531866        68.8956 
 434   0.0000       2.537085        69.0376 
 435   0.0000       2.539070        69.0916 
 436   0.0000       2.559093        69.6365 
 437   0.0000       2.576951        70.1224 
 438   0.0000       2.580045        70.2066 
 439   0.0000       2.587280        70.4035 
 440   0.0000       2.593820        70.5814 
 441   0.0000       2.595094        70.6161 
 442   0.0000       2.596347        70.6502 
 443   0.0000       2.601695        70.7957 
 444   0.0000       2.617641        71.2296 
 445   0.0000       2.621179        71.3259 
 446   0.0000       2.623797        71.3971 
 447   0.0000       2.626320        71.4658 
 448   0.0000       2.627756        71.5049 
 449   0.0000       2.628270        71.5189 
 450   0.0000       2.632412        71.6316 
 451   0.0000       2.636553        71.7442 
 452   0.0000       2.637382        71.7668 
 453   0.0000       2.638610        71.8002 
 454   0.0000       2.646890        72.0255 
 455   0.0000       2.649148        72.0870 
 456   0.0000       2.675098        72.7931 
 457   0.0000       2.704144        73.5835 
 458   0.0000       2.749874        74.8279 
 459   0.0000       2.773099        75.4599 
 460   0.0000       2.782994        75.7291 
 461   0.0000       2.783987        75.7561 
 462   0.0000       2.790437        75.9316 
 463   0.0000       2.808458        76.4220 
 464   0.0000       2.813966        76.5719 
 465   0.0000       2.844056        77.3907 
 466   0.0000       2.898348        78.8681 
 467   0.0000       2.910432        79.1969 
 468   0.0000       2.920024        79.4579 
 469   0.0000       2.920974        79.4837 
 470   0.0000       2.937699        79.9388 
 471   0.0000       2.990056        81.3636 
 472   0.0000       3.011643        81.9510 
 473   0.0000       3.012886        81.9848 
 474   0.0000       3.046948        82.9117 
 475   0.0000       3.054398        83.1144 
 476   0.0000       3.054950        83.1294 
 477   0.0000       3.113981        84.7357 
 478   0.0000       3.160850        86.0111 
 479   0.0000       3.219231        87.5997 
 480   0.0000       3.241083        88.1944 
 481   0.0000       3.305275        89.9411 
 482   0.0000       3.319289        90.3225 
 483   0.0000       3.336703        90.7963 
 484   0.0000       3.337078        90.8065 
 485   0.0000       3.389384        92.2298 
 486   0.0000       3.415896        92.9513 
 487   0.0000       3.417912        93.0061 
 488   0.0000       3.429867        93.3314 
 489   0.0000       3.490906        94.9924 
 490   0.0000       3.541453        96.3678 
 491   0.0000       3.872142       105.3664 
 492   0.0000       3.881819       105.6297 
 493   0.0000       3.885451       105.7285 
 494   0.0000       3.911460       106.4362 
 495   0.0000       3.956786       107.6696 
 496   0.0000       3.959198       107.7352 
 497   0.0000       3.997607       108.7804 

                 SPIN DOWN ORBITALS
  NO   OCC          E(Eh)            E(eV) 
   0   1.0000    -254.884859     -6935.7696 
   1   1.0000     -29.602968      -805.5377 
   2   1.0000     -25.563729      -695.6244 
   3   1.0000     -25.563377      -695.6149 
   4   1.0000     -25.562130      -695.5809 
   5   1.0000     -18.766810      -510.6709 
   6   1.0000     -18.734581      -509.7939 
   7   1.0000     -14.022866      -381.5816 
   8   1.0000     -14.022807      -381.5800 
   9   1.0000     -14.022567      -381.5734 
  10   1.0000     -14.021750      -381.5512 
  11   1.0000     -10.005569      -272.2654 
  12   1.0000      -9.955354      -270.8989 
  13   1.0000      -9.955175      -270.8941 
  14   1.0000      -9.955102      -270.8921 
  15   1.0000      -9.955007      -270.8895 
  16   1.0000      -9.954874      -270.8859 
  17   1.0000      -9.954458      -270.8746 
  18   1.0000      -9.953789      -270.8564 
  19   1.0000      -9.952931      -270.8330 
  20   1.0000      -9.931867      -270.2598 
  21   1.0000      -9.931673      -270.2546 
  22   1.0000      -9.931653      -270.2540 
  23   1.0000      -9.929415      -270.1931 
  24   1.0000      -9.923910      -270.0433 
  25   1.0000      -9.923867      -270.0421 
  26   1.0000      -9.923594      -270.0347 
  27   1.0000      -9.923524      -270.0328 
  28   1.0000      -9.923209      -270.0243 
  29   1.0000      -9.922688      -270.0101 
  30   1.0000      -9.921594      -269.9803 
  31   1.0000      -9.920915      -269.9618 
  32   1.0000      -9.900843      -269.4156 
  33   1.0000      -3.255527       -88.5874 
  34   1.0000      -2.072598       -56.3982 
  35   1.0000      -2.071264       -56.3620 
  36   1.0000      -2.070456       -56.3400 
  37   1.0000      -0.937780       -25.5183 
  38   1.0000      -0.882299       -24.0086 
  39   1.0000      -0.874436       -23.7946 
  40   1.0000      -0.873553       -23.7706 
  41   1.0000      -0.865208       -23.5435 
  42   1.0000      -0.853738       -23.2314 
  43   1.0000      -0.745239       -20.2790 
  44   1.0000      -0.720891       -19.6164 
  45   1.0000      -0.720366       -19.6022 
  46   1.0000      -0.701511       -19.0891 
  47   1.0000      -0.695929       -18.9372 
  48   1.0000      -0.695294       -18.9199 
  49   1.0000      -0.691780       -18.8243 
  50   1.0000      -0.675461       -18.3802 
  51   1.0000      -0.652041       -17.7429 
  52   1.0000      -0.644355       -17.5338 
  53   1.0000      -0.596615       -16.2347 
  54   1.0000      -0.596269       -16.2253 
  55   1.0000      -0.544036       -14.8040 
  56   1.0000      -0.526308       -14.3216 
  57   1.0000      -0.522769       -14.2253 
  58   1.0000      -0.522219       -14.2103 
  59   1.0000      -0.519756       -14.1433 
  60   1.0000      -0.498605       -13.5677 
  61   1.0000      -0.493282       -13.4229 
  62   1.0000      -0.475846       -12.9484 
  63   1.0000      -0.475213       -12.9312 
  64   1.0000      -0.475011       -12.9257 
  65   1.0000      -0.467477       -12.7207 
  66   1.0000      -0.453331       -12.3358 
  67   1.0000      -0.452953       -12.3255 
  68   1.0000      -0.409807       -11.1514 
  69   1.0000      -0.401318       -10.9204 
  70   1.0000      -0.399114       -10.8605 
  71   1.0000      -0.392465       -10.6795 
  72   1.0000      -0.390391       -10.6231 
  73   1.0000      -0.386475       -10.5165 
  74   1.0000      -0.386272       -10.5110 
  75   1.0000      -0.382824       -10.4172 
  76   1.0000      -0.379179       -10.3180 
  77   1.0000      -0.378404       -10.2969 
  78   1.0000      -0.373112       -10.1529 
  79   1.0000      -0.372802       -10.1444 
  80   1.0000      -0.360554        -9.8112 
  81   1.0000      -0.357522        -9.7287 
  82   1.0000      -0.356846        -9.7103 
  83   1.0000      -0.350244        -9.5306 
  84   1.0000      -0.341791        -9.3006 
  85   1.0000      -0.340840        -9.2747 
  86   1.0000      -0.340551        -9.2669 
  87   1.0000      -0.340032        -9.2527 
  88   1.0000      -0.335614        -9.1325 
  89   1.0000      -0.333650        -9.0791 
  90   1.0000      -0.316936        -8.6243 
  91   1.0000      -0.302228        -8.2240 
  92   1.0000      -0.299803        -8.1581 
  93   1.0000      -0.290719        -7.9109 
  94   1.0000      -0.290388        -7.9019 
  95   1.0000      -0.264799        -7.2056 
  96   1.0000      -0.264492        -7.1972 
  97   1.0000      -0.254394        -6.9224 
  98   1.0000      -0.248002        -6.7485 
  99   1.0000      -0.242353        -6.5948 
 100   1.0000      -0.228812        -6.2263 
 101   1.0000      -0.227003        -6.1771 
 102   1.0000      -0.225632        -6.1398 
 103   1.0000      -0.196811        -5.3555 
 104   1.0000      -0.194765        -5.2998 
 105   1.0000      -0.192233        -5.2309 
 106   0.0000      -0.164829        -4.4852 
 107   0.0000      -0.148217        -4.0332 
 108   0.0000      -0.146914        -3.9977 
 109   0.0000      -0.120762        -3.2861 
 110   0.0000      -0.112348        -3.0571 
 111   0.0000      -0.111451        -3.0327 
 112   0.0000      -0.096018        -2.6128 
 113   0.0000      -0.066227        -1.8021 
 114   0.0000       0.002098         0.0571 
 115   0.0000       0.004009         0.1091 
 116   0.0000       0.014355         0.3906 
 117   0.0000       0.015150         0.4122 
 118   0.0000       0.026613         0.7242 
 119   0.0000       0.033914         0.9228 
 120   0.0000       0.051245         1.3944 
 121   0.0000       0.053113         1.4453 
 122   0.0000       0.053982         1.4689 
 123   0.0000       0.063925         1.7395 
 124   0.0000       0.071486         1.9452 
 125   0.0000       0.074792         2.0352 
 126   0.0000       0.077079         2.0974 
 127   0.0000       0.078352         2.1321 
 128   0.0000       0.080489         2.1902 
 129   0.0000       0.085231         2.3192 
 130   0.0000       0.085494         2.3264 
 131   0.0000       0.092024         2.5041 
 132   0.0000       0.098689         2.6855 
 133   0.0000       0.104484         2.8432 
 134   0.0000       0.119503         3.2518 
 135   0.0000       0.120232         3.2717 
 136   0.0000       0.125681         3.4199 
 137   0.0000       0.133230         3.6254 
 138   0.0000       0.135573         3.6891 
 139   0.0000       0.156393         4.2557 
 140   0.0000       0.158079         4.3015 
 141   0.0000       0.164818         4.4849 
 142   0.0000       0.172698         4.6994 
 143   0.0000       0.181740         4.9454 
 144   0.0000       0.184809         5.0289 
 145   0.0000       0.189626         5.1600 
 146   0.0000       0.191243         5.2040 
 147   0.0000       0.192060         5.2262 
 148   0.0000       0.201113         5.4726 
 149   0.0000       0.214739         5.8434 
 150   0.0000       0.216171         5.8823 
 151   0.0000       0.217181         5.9098 
 152   0.0000       0.226845         6.1728 
 153   0.0000       0.257877         7.0172 
 154   0.0000       0.263723         7.1763 
 155   0.0000       0.266044         7.2394 
 156   0.0000       0.278145         7.5687 
 157   0.0000       0.286655         7.8003 
 158   0.0000       0.288220         7.8429 
 159   0.0000       0.288457         7.8493 
 160   0.0000       0.290479         7.9043 
 161   0.0000       0.302328         8.2268 
 162   0.0000       0.314259         8.5514 
 163   0.0000       0.319543         8.6952 
 164   0.0000       0.322710         8.7814 
 165   0.0000       0.338082         9.1997 
 166   0.0000       0.341912         9.3039 
 167   0.0000       0.342843         9.3292 
 168   0.0000       0.348576         9.4852 
 169   0.0000       0.361807         9.8453 
 170   0.0000       0.366405         9.9704 
 171   0.0000       0.371079        10.0976 
 172   0.0000       0.374572        10.1926 
 173   0.0000       0.375634        10.2215 
 174   0.0000       0.377321        10.2674 
 175   0.0000       0.378429        10.2976 
 176   0.0000       0.383828        10.4445 
 177   0.0000       0.385382        10.4868 
 178   0.0000       0.389429        10.5969 
 179   0.0000       0.392565        10.6822 
 180   0.0000       0.395287        10.7563 
 181   0.0000       0.400693        10.9034 
 182   0.0000       0.420781        11.4500 
 183   0.0000       0.424699        11.5566 
 184   0.0000       0.428214        11.6523 
 185   0.0000       0.429661        11.6917 
 186   0.0000       0.432916        11.7802 
 187   0.0000       0.439346        11.9552 
 188   0.0000       0.443105        12.0575 
 189   0.0000       0.444113        12.0849 
 190   0.0000       0.445628        12.1262 
 191   0.0000       0.450366        12.2551 
 192   0.0000       0.452759        12.3202 
 193   0.0000       0.464199        12.6315 
 194   0.0000       0.465881        12.6773 
 195   0.0000       0.466421        12.6919 
 196   0.0000       0.475098        12.9281 
 197   0.0000       0.476944        12.9783 
 198   0.0000       0.491160        13.3651 
 199   0.0000       0.493338        13.4244 
 200   0.0000       0.497394        13.5348 
 201   0.0000       0.502034        13.6611 
 202   0.0000       0.504466        13.7272 
 203   0.0000       0.505267        13.7490 
 204   0.0000       0.517779        14.0895 
 205   0.0000       0.523590        14.2476 
 206   0.0000       0.532311        14.4849 
 207   0.0000       0.537795        14.6342 
 208   0.0000       0.547816        14.9068 
 209   0.0000       0.551458        15.0059 
 210   0.0000       0.557081        15.1589 
 211   0.0000       0.571035        15.5387 
 212   0.0000       0.575021        15.6471 
 213   0.0000       0.588158        16.0046 
 214   0.0000       0.589611        16.0441 
 215   0.0000       0.591268        16.0892 
 216   0.0000       0.591846        16.1049 
 217   0.0000       0.599994        16.3267 
 218   0.0000       0.601750        16.3744 
 219   0.0000       0.603607        16.4250 
 220   0.0000       0.615468        16.7477 
 221   0.0000       0.623335        16.9618 
 222   0.0000       0.624134        16.9836 
 223   0.0000       0.624635        16.9972 
 224   0.0000       0.632014        17.1980 
 225   0.0000       0.633626        17.2418 
 226   0.0000       0.635102        17.2820 
 227   0.0000       0.635905        17.3039 
 228   0.0000       0.642391        17.4803 
 229   0.0000       0.647405        17.6168 
 230   0.0000       0.647552        17.6208 
 231   0.0000       0.651437        17.7265 
 232   0.0000       0.655900        17.8479 
 233   0.0000       0.658303        17.9133 
 234   0.0000       0.666900        18.1473 
 235   0.0000       0.669326        18.2133 
 236   0.0000       0.672482        18.2992 
 237   0.0000       0.681546        18.5458 
 238   0.0000       0.689157        18.7529 
 239   0.0000       0.691028        18.8038 
 240   0.0000       0.692048        18.8316 
 241   0.0000       0.695705        18.9311 
 242   0.0000       0.696312        18.9476 
 243   0.0000       0.706908        19.2360 
 244   0.0000       0.709249        19.2997 
 245   0.0000       0.713627        19.4188 
 246   0.0000       0.725344        19.7376 
 247   0.0000       0.730953        19.8902 
 248   0.0000       0.774544        21.0764 
 249   0.0000       0.780522        21.2391 
 250   0.0000       0.784332        21.3428 
 251   0.0000       0.805418        21.9166 
 252   0.0000       0.807027        21.9603 
 253   0.0000       0.822280        22.3754 
 254   0.0000       0.824936        22.4476 
 255   0.0000       0.837727        22.7957 
 256   0.0000       0.866539        23.5797 
 257   0.0000       0.869677        23.6651 
 258   0.0000       0.907404        24.6917 
 259   0.0000       0.910336        24.7715 
 260   0.0000       0.913814        24.8661 
 261   0.0000       0.934447        25.4276 
 262   0.0000       0.936942        25.4955 
 263   0.0000       0.939212        25.5572 
 264   0.0000       0.958447        26.0807 
 265   0.0000       0.967690        26.3322 
 266   0.0000       0.993566        27.0363 
 267   0.0000       1.000939        27.2369 
 268   0.0000       1.019748        27.7487 
 269   0.0000       1.023453        27.8496 
 270   0.0000       1.027431        27.9578 
 271   0.0000       1.040179        28.3047 
 272   0.0000       1.056241        28.7418 
 273   0.0000       1.072984        29.1974 
 274   0.0000       1.076806        29.3014 
 275   0.0000       1.085946        29.5501 
 276   0.0000       1.092143        29.7187 
 277   0.0000       1.094020        29.7698 
 278   0.0000       1.097320        29.8596 
 279   0.0000       1.101297        29.9678 
 280   0.0000       1.106089        30.0982 
 281   0.0000       1.108821        30.1725 
 282   0.0000       1.115386        30.3512 
 283   0.0000       1.120789        30.4982 
 284   0.0000       1.140091        31.0235 
 285   0.0000       1.142039        31.0765 
 286   0.0000       1.148964        31.2649 
 287   0.0000       1.154322        31.4107 
 288   0.0000       1.157769        31.5045 
 289   0.0000       1.170699        31.8563 
 290   0.0000       1.174589        31.9622 
 291   0.0000       1.183819        32.2133 
 292   0.0000       1.188251        32.3340 
 293   0.0000       1.198267        32.6065 
 294   0.0000       1.201133        32.6845 
 295   0.0000       1.211568        32.9685 
 296   0.0000       1.220024        33.1985 
 297   0.0000       1.226660        33.3791 
 298   0.0000       1.228894        33.4399 
 299   0.0000       1.232680        33.5429 
 300   0.0000       1.235319        33.6148 
 301   0.0000       1.239296        33.7230 
 302   0.0000       1.253824        34.1183 
 303   0.0000       1.259582        34.2750 
 304   0.0000       1.263617        34.3848 
 305   0.0000       1.275070        34.6964 
 306   0.0000       1.281499        34.8714 
 307   0.0000       1.286594        35.0100 
 308   0.0000       1.297491        35.3065 
 309   0.0000       1.304318        35.4923 
 310   0.0000       1.307016        35.5657 
 311   0.0000       1.318423        35.8761 
 312   0.0000       1.321107        35.9491 
 313   0.0000       1.357549        36.9408 
 314   0.0000       1.391256        37.8580 
 315   0.0000       1.397726        38.0341 
 316   0.0000       1.408799        38.3354 
 317   0.0000       1.419301        38.6211 
 318   0.0000       1.463041        39.8114 
 319   0.0000       1.468064        39.9481 
 320   0.0000       1.469988        40.0004 
 321   0.0000       1.497211        40.7412 
 322   0.0000       1.514812        41.2201 
 323   0.0000       1.522948        41.4415 
 324   0.0000       1.528470        41.5918 
 325   0.0000       1.534340        41.7515 
 326   0.0000       1.547491        42.1094 
 327   0.0000       1.559470        42.4353 
 328   0.0000       1.565835        42.6085 
 329   0.0000       1.566273        42.6204 
 330   0.0000       1.567950        42.6661 
 331   0.0000       1.583827        43.0981 
 332   0.0000       1.585655        43.1479 
 333   0.0000       1.598927        43.5090 
 334   0.0000       1.604641        43.6645 
 335   0.0000       1.613977        43.9186 
 336   0.0000       1.622319        44.1456 
 337   0.0000       1.624648        44.2089 
 338   0.0000       1.626062        44.2474 
 339   0.0000       1.651099        44.9287 
 340   0.0000       1.681859        45.7657 
 341   0.0000       1.682206        45.7752 
 342   0.0000       1.683657        45.8146 
 343   0.0000       1.686297        45.8865 
 344   0.0000       1.691172        46.0191 
 345   0.0000       1.691265        46.0217 
 346   0.0000       1.696896        46.1749 
 347   0.0000       1.704907        46.3929 
 348   0.0000       1.712488        46.5992 
 349   0.0000       1.718456        46.7616 
 350   0.0000       1.719774        46.7974 
 351   0.0000       1.731246        47.1096 
 352   0.0000       1.739689        47.3394 
 353   0.0000       1.741348        47.3845 
 354   0.0000       1.744243        47.4633 
 355   0.0000       1.746976        47.5376 
 356   0.0000       1.750781        47.6412 
 357   0.0000       1.770602        48.1805 
 358   0.0000       1.797553        48.9139 
 359   0.0000       1.799078        48.9554 
 360   0.0000       1.820204        49.5303 
 361   0.0000       1.824316        49.6422 
 362   0.0000       1.833270        49.8858 
 363   0.0000       1.835414        49.9441 
 364   0.0000       1.835835        49.9556 
 365   0.0000       1.838312        50.0230 
 366   0.0000       1.841140        50.1000 
 367   0.0000       1.850814        50.3632 
 368   0.0000       1.856221        50.5103 
 369   0.0000       1.875504        51.0350 
 370   0.0000       1.884013        51.2666 
 371   0.0000       1.886385        51.3312 
 372   0.0000       1.892901        51.5085 
 373   0.0000       1.893833        51.5338 
 374   0.0000       1.905073        51.8397 
 375   0.0000       1.930293        52.5259 
 376   0.0000       1.950182        53.0672 
 377   0.0000       1.952507        53.1304 
 378   0.0000       1.953015        53.1442 
 379   0.0000       1.966911        53.5224 
 380   0.0000       1.973444        53.7001 
 381   0.0000       1.976029        53.7705 
 382   0.0000       1.978866        53.8477 
 383   0.0000       1.987580        54.0848 
 384   0.0000       1.988589        54.1123 
 385   0.0000       2.007815        54.6354 
 386   0.0000       2.011219        54.7280 
 387   0.0000       2.017343        54.8947 
 388   0.0000       2.034065        55.3497 
 389   0.0000       2.049124        55.7595 
 390   0.0000       2.056492        55.9600 
 391   0.0000       2.067641        56.2634 
 392   0.0000       2.069799        56.3221 
 393   0.0000       2.073365        56.4191 
 394   0.0000       2.083296        56.6894 
 395   0.0000       2.084216        56.7144 
 396   0.0000       2.088966        56.8436 
 397   0.0000       2.091890        56.9232 
 398   0.0000       2.120068        57.6900 
 399   0.0000       2.121006        57.7155 
 400   0.0000       2.129441        57.9450 
 401   0.0000       2.133599        58.0582 
 402   0.0000       2.137950        58.1766 
 403   0.0000       2.162435        58.8428 
 404   0.0000       2.187479        59.5243 
 405   0.0000       2.188133        59.5421 
 406   0.0000       2.204204        59.9794 
 407   0.0000       2.210650        60.1548 
 408   0.0000       2.219092        60.3846 
 409   0.0000       2.226739        60.5927 
 410   0.0000       2.229017        60.6546 
 411   0.0000       2.231121        60.7119 
 412   0.0000       2.270833        61.7925 
 413   0.0000       2.280674        62.0603 
 414   0.0000       2.281535        62.0837 
 415   0.0000       2.287890        62.2567 
[...]
      px      :    -0.000250
      py      :     0.003122
      dz2     :     0.000039  d :     0.002972
      dxz     :     0.000164
      dyz     :     0.001023
      dx2y2   :     0.000165
      dxy     :     0.001581
  8 C s       :     0.001179  s :     0.001179
      pz      :     0.004058  p :     0.006837
      px      :     0.002116
      py      :     0.000663
      dz2     :     0.000037  d :     0.000354
      dxz     :     0.000110
      dyz     :     0.000006
      dx2y2   :     0.000056
      dxy     :     0.000145
  9 C s       :     0.001290  s :     0.001290
      pz      :     0.006309  p :     0.009334
      px      :     0.000572
      py      :     0.002453
      dz2     :     0.000034  d :     0.000271
      dxz     :     0.000000
      dyz     :     0.000040
      dx2y2   :     0.000042
      dxy     :     0.000154
 10 C s       :     0.000845  s :     0.000845
      pz      :    -0.001136  p :     0.001705
      px      :     0.003153
      py      :    -0.000312
      dz2     :     0.000067  d :     0.003060
      dxz     :     0.001099
      dyz     :     0.000172
      dx2y2   :     0.000138
      dxy     :     0.001584
 11 N s       :     0.020132  s :     0.020132
      pz      :     0.035948  p :     0.102065
      px      :     0.031515
      py      :     0.034602
      dz2     :     0.000479  d :     0.001796
      dxz     :     0.000296
      dyz     :     0.000362
      dx2y2   :     0.000499
      dxy     :     0.000160
 12 C s       :     0.000431  s :     0.000431
      pz      :     0.014075  p :     0.015484
      px      :     0.000310
      py      :     0.001099
      dz2     :    -0.000036  d :     0.000019
      dxz     :     0.000000
      dyz     :    -0.000009
      dx2y2   :     0.000018
      dxy     :     0.000045
 13 C s       :     0.000758  s :     0.000758
      pz      :    -0.000794  p :     0.001902
      px      :     0.002959
      py      :    -0.000263
      dz2     :     0.000075  d :     0.002684
      dxz     :     0.000793
      dyz     :     0.000181
      dx2y2   :     0.000157
      dxy     :     0.001478
 14 C s       :     0.001132  s :     0.001132
      pz      :     0.003555  p :     0.006198
      px      :     0.000547
      py      :     0.002096
      dz2     :     0.000035  d :     0.000287
      dxz     :     0.000006
      dyz     :     0.000053
      dx2y2   :     0.000053
      dxy     :     0.000141
 15 C s       :     0.001170  s :     0.001170
      pz      :     0.004337  p :     0.007019
      px      :     0.002105
      py      :     0.000577
      dz2     :     0.000031  d :     0.000252
      dxz     :     0.000025
      dyz     :     0.000007
      dx2y2   :     0.000039
      dxy     :     0.000151
 16 C s       :     0.000797  s :     0.000797
      pz      :    -0.001705  p :     0.000947
      px      :    -0.000324
      py      :     0.002976
      dz2     :     0.000078  d :     0.002752
      dxz     :     0.000245
      dyz     :     0.000831
      dx2y2   :     0.000133
      dxy     :     0.001465
 17 N s       :     0.019135  s :     0.019135
      pz      :     0.026747  p :     0.088486
      px      :     0.031833
      py      :     0.029906
      dz2     :     0.000526  d :     0.001613
      dxz     :     0.000235
      dyz     :     0.000197
      dx2y2   :     0.000464
      dxy     :     0.000192
 18 C s       :     0.000491  s :     0.000491
      pz      :     0.016318  p :     0.017861
      px      :     0.001025
      py      :     0.000518
      dz2     :    -0.000048  d :    -0.000022
      dxz     :    -0.000027
      dyz     :    -0.000003
      dx2y2   :     0.000004
      dxy     :     0.000052
 19 C s       :     0.000769  s :     0.000769
      pz      :    -0.001536  p :     0.000965
      px      :    -0.000351
      py      :     0.002852
      dz2     :     0.000078  d :     0.002636
      dxz     :     0.000283
      dyz     :     0.000756
      dx2y2   :     0.000155
      dxy     :     0.001364
 20 C s       :     0.001114  s :     0.001114
      pz      :     0.003622  p :     0.006160
      px      :     0.001892
      py      :     0.000646
      dz2     :     0.000031  d :     0.000240
      dxz     :     0.000021
      dyz     :     0.000005
      dx2y2   :     0.000048
      dxy     :     0.000134
 21 C s       :     0.001100  s :     0.001100
      pz      :     0.003107  p :     0.005704
      px      :     0.000439
      py      :     0.002159
      dz2     :     0.000037  d :     0.000262
      dxz     :     0.000008
      dyz     :     0.000038
      dx2y2   :     0.000037
      dxy     :     0.000142
 22 C s       :     0.000771  s :     0.000771
      pz      :    -0.000923  p :     0.001639
      px      :     0.002797
      py      :    -0.000234
      dz2     :     0.000083  d :     0.002607
      dxz     :     0.000775
      dyz     :     0.000152
      dx2y2   :     0.000120
      dxy     :     0.001476
 23 N s       :     0.018824  s :     0.018824
      pz      :     0.025087  p :     0.084978
      px      :     0.027969
      py      :     0.031921
      dz2     :     0.000510  d :     0.001528
      dxz     :     0.000204
      dyz     :     0.000208
      dx2y2   :     0.000427
      dxy     :     0.000179
 24 C s       :     0.000435  s :     0.000435
      pz      :     0.014441  p :     0.015818
      px      :     0.000311
      py      :     0.001066
      dz2     :    -0.000038  d :     0.000015
      dxz     :    -0.000001
      dyz     :    -0.000015
      dx2y2   :     0.000018
      dxy     :     0.000052
 25 O s       :     0.012641  s :     0.012641
      pz      :     0.096033  p :     0.240939
      px      :     0.070999
      py      :     0.073906
      dz2     :     0.000617  d :     0.001940
      dxz     :     0.000440
      dyz     :     0.000758
      dx2y2   :     0.000071
      dxy     :     0.000055
 26 O s       :     0.000809  s :     0.000809
      pz      :     0.028217  p :     0.074812
      px      :     0.035279
      py      :     0.011315
      dz2     :    -0.000004  d :    -0.000111
      dxz     :    -0.000004
      dyz     :     0.000008
      dx2y2   :    -0.000038
      dxy     :    -0.000073
 27 C s       :    -0.000435  s :    -0.000435
      pz      :     0.002504  p :    -0.003143
      px      :    -0.007360
      py      :     0.001714
      dz2     :     0.003325  d :     0.009474
      dxz     :     0.000554
      dyz     :     0.001701
      dx2y2   :     0.001439
      dxy     :     0.002456
 28 C s       :     0.001708  s :     0.001708
      pz      :     0.007972  p :     0.010097
      px      :     0.000889
      py      :     0.001236
      dz2     :     0.000048  d :     0.000235
      dxz     :    -0.000036
      dyz     :     0.000285
      dx2y2   :     0.000014
      dxy     :    -0.000076
 29 H s       :     0.000544  s :     0.000544
      pz      :     0.000072  p :     0.000226
      px      :     0.000029
      py      :     0.000124
 30 H s       :     0.000521  s :     0.000521
      pz      :     0.000086  p :     0.000238
      px      :     0.000115
      py      :     0.000036
 31 H s       :     0.000510  s :     0.000510
      pz      :     0.000159  p :     0.000342
      px      :     0.000050
      py      :     0.000132
 32 H s       :     0.000553  s :     0.000553
      pz      :     0.000089  p :     0.000246
      px      :     0.000126
      py      :     0.000031
 33 H s       :     0.000562  s :     0.000562
      pz      :     0.000093  p :     0.000255
      px      :     0.000124
      py      :     0.000038
 34 H s       :     0.000524  s :     0.000524
      pz      :     0.000153  p :     0.000335
      px      :     0.000040
      py      :     0.000142
 35 H s       :     0.000538  s :     0.000538
      pz      :     0.000103  p :     0.000264
      px      :     0.000127
      py      :     0.000034
 36 H s       :     0.000558  s :     0.000558
      pz      :     0.000083  p :     0.000239
      px      :     0.000035
      py      :     0.000121
 37 H s       :    -0.000248  s :    -0.000248
      pz      :     0.000135  p :     0.000216
      px      :     0.000030
      py      :     0.000051
 38 H s       :    -0.000143  s :    -0.000143
      pz      :     0.000129  p :     0.000207
      px      :     0.000044
      py      :     0.000034
 39 H s       :     0.002721  s :     0.002721
      pz      :     0.000262  p :     0.000318
      px      :     0.000029
      py      :     0.000026
 40 H s       :    -0.000357  s :    -0.000357
      pz      :     0.000376  p :     0.000426
      px      :     0.000000
      py      :     0.000049
 41 H s       :    -0.000354  s :    -0.000354
      pz      :     0.000424  p :     0.000480
      px      :     0.000054
      py      :     0.000003
 42 H s       :    -0.000357  s :    -0.000357
      pz      :     0.000420  p :     0.000475
      px      :     0.000052
      py      :     0.000003
 43 H s       :    -0.000427  s :    -0.000427
      pz      :     0.000475  p :     0.000538
      px      :     0.000001
      py      :     0.000062


                      *****************************
                      * MAYER POPULATION ANALYSIS *
                      *****************************

  NA   - Mulliken gross atomic population
  ZA   - Total nuclear charge
  QA   - Mulliken gross atomic charge
  VA   - Mayer's total valence
  BVA  - Mayer's bonded valence
  FA   - Mayer's free valence

  ATOM       NA         ZA         QA         VA         BVA        FA
  0 Fe    25.1811    26.0000     0.8189     6.9358     3.6645     3.2713
  1 N      7.2767     7.0000    -0.2767     3.2348     3.2278     0.0070
  2 C      5.8626     6.0000     0.1374     3.9274     3.9274     0.0000
  3 C      6.0127     6.0000    -0.0127     3.7359     3.7358     0.0001
  4 C      6.0061     6.0000    -0.0061     3.7394     3.7393     0.0000
  5 C      5.8691     6.0000     0.1309     3.9498     3.9498     0.0000
  6 C      6.0402     6.0000    -0.0402     3.8112     3.8109     0.0002
  7 C      5.8514     6.0000     0.1486     3.9579     3.9579     0.0000
  8 C      6.0003     6.0000    -0.0003     3.7451     3.7451     0.0000
  9 C      6.0114     6.0000    -0.0114     3.7420     3.7419     0.0001
 10 C      5.8606     6.0000     0.1394     3.9358     3.9357     0.0000
 11 N      7.2757     7.0000    -0.2757     3.2364     3.2287     0.0077
 12 C      6.0720     6.0000    -0.0720     3.7851     3.7848     0.0003
 13 C      5.8651     6.0000     0.1349     3.9312     3.9312     0.0000
 14 C      6.0130     6.0000    -0.0130     3.7382     3.7381     0.0000
 15 C      6.0142     6.0000    -0.0142     3.7392     3.7391     0.0001
 16 C      5.8647     6.0000     0.1353     3.9376     3.9375     0.0000
 17 N      7.2770     7.0000    -0.2770     3.2377     3.2315     0.0062
 18 C      6.0748     6.0000    -0.0748     3.7839     3.7835     0.0004
 19 C      5.8636     6.0000     0.1364     3.9317     3.9317     0.0000
 20 C      6.0145     6.0000    -0.0145     3.7381     3.7380     0.0000
 21 C      6.0131     6.0000    -0.0131     3.7383     3.7383     0.0000
 22 C      5.8683     6.0000     0.1317     3.9409     3.9409     0.0000
 23 N      7.2753     7.0000    -0.2753     3.2381     3.2323     0.0058
 24 C      6.0738     6.0000    -0.0738     3.7826     3.7823     0.0003
 25 O      8.3695     8.0000    -0.3695     2.2119     2.1836     0.0283
 26 O      8.2182     8.0000    -0.2182     2.2836     2.2807     0.0028
 27 C      5.8865     6.0000     0.1135     4.3629     4.3626     0.0002
 28 C      6.0295     6.0000    -0.0295     3.8932     3.8930     0.0001
 29 H      1.0079     1.0000    -0.0079     0.9917     0.9917     0.0000
 30 H      1.0080     1.0000    -0.0080     0.9917     0.9917     0.0000
 31 H      1.0080     1.0000    -0.0080     0.9917     0.9917     0.0000
 32 H      1.0065     1.0000    -0.0065     0.9919     0.9919     0.0000
 33 H      1.0065     1.0000    -0.0065     0.9918     0.9918     0.0000
 34 H      1.0074     1.0000    -0.0074     0.9918     0.9918     0.0000
 35 H      1.0078     1.0000    -0.0078     0.9918     0.9918     0.0000
 36 H      1.0079     1.0000    -0.0079     0.9918     0.9918     0.0000
 37 H      0.9487     1.0000     0.0513     0.9989     0.9989     0.0000
 38 H      0.9520     1.0000     0.0480     0.9990     0.9990     0.0000
 39 H      0.9621     1.0000     0.0379     1.0078     1.0077     0.0000
 40 H      1.0089     1.0000    -0.0089     0.9957     0.9957     0.0000
 41 H      1.0094     1.0000    -0.0094     0.9954     0.9954     0.0000
 42 H      1.0083     1.0000    -0.0083     0.9955     0.9955     0.0000
 43 H      1.0097     1.0000    -0.0097     0.9954     0.9954     0.0000

  Mayer bond orders larger than 0.1
B(  0-Fe,  1-N ) :   0.5858 B(  0-Fe, 11-N ) :   0.6026 B(  0-Fe, 17-N ) :   0.5653 
B(  0-Fe, 23-N ) :   0.5570 B(  0-Fe, 25-O ) :   0.8489 B(  0-Fe, 26-O ) :   0.1063 
B(  1-N ,  2-C ) :   1.2493 B(  1-N ,  5-C ) :   1.2480 B(  2-C ,  3-C ) :   1.1339 
B(  2-C , 24-C ) :   1.3083 B(  3-C ,  4-C ) :   1.4821 B(  3-C , 31-H ) :   1.0007 
B(  4-C ,  5-C ) :   1.1381 B(  4-C , 32-H ) :   0.9997 B(  5-C ,  6-C ) :   1.3176 
B(  6-C ,  7-C ) :   1.3146 B(  6-C , 40-H ) :   0.9449 B(  7-C ,  8-C ) :   1.1355 
B(  7-C , 11-N ) :   1.2421 B(  8-C ,  9-C ) :   1.4883 B(  8-C , 33-H ) :   0.9995 
B(  9-C , 10-C ) :   1.1324 B(  9-C , 34-H ) :   0.9997 B( 10-C , 11-N ) :   1.2451 
B( 10-C , 12-C ) :   1.3153 B( 12-C , 13-C ) :   1.3050 B( 12-C , 42-H ) :   0.9490 
B( 13-C , 14-C ) :   1.1359 B( 13-C , 17-N ) :   1.2564 B( 14-C , 15-C ) :   1.4821 
B( 14-C , 36-H ) :   1.0008 B( 15-C , 16-C ) :   1.1361 B( 15-C , 35-H ) :   1.0001 
B( 16-C , 17-N ) :   1.2570 B( 16-C , 18-C ) :   1.3107 B( 18-C , 19-C ) :   1.3083 
B( 18-C , 43-H ) :   0.9490 B( 19-C , 20-C ) :   1.1336 B( 19-C , 23-N ) :   1.2587 
B( 20-C , 21-C ) :   1.4838 B( 20-C , 30-H ) :   1.0010 B( 21-C , 22-C ) :   1.1342 
B( 21-C , 29-H ) :   0.9999 B( 22-C , 23-N ) :   1.2617 B( 22-C , 24-C ) :   1.3107 
B( 24-C , 41-H ) :   0.9486 B( 25-O , 27-C ) :   1.2135 B( 26-O , 27-C ) :   2.0130 
B( 27-C , 28-C ) :   1.0250 B( 28-C , 37-H ) :   0.9501 B( 28-C , 38-H ) :   0.9500 
B( 28-C , 39-H ) :   0.9585 

-------
TIMINGS
-------

Total SCF time: 0 days 0 hours 4 min 40 sec 

Total time                  ....     280.339 sec
Sum of individual times     ....     279.242 sec  ( 99.6%)

Fock matrix formation       ....     262.341 sec  ( 93.6%)
  Split-RI-J                ....     173.259 sec  ( 66.0% of F)
  XC integration            ....      88.366 sec  ( 33.7% of F)
    Basis function eval.    ....      18.311 sec  ( 20.7% of XC)
    Density eval.           ....      28.075 sec  ( 31.8% of XC)
    XC-Functional eval.     ....       2.992 sec  (  3.4% of XC)
    XC-Potential eval.      ....      37.823 sec  ( 42.8% of XC)
Diagonalization             ....       5.027 sec  (  1.8%)
Density matrix formation    ....       0.887 sec  (  0.3%)
Population analysis         ....       0.087 sec  (  0.0%)
Initial guess               ....       2.644 sec  (  0.9%)
Orbital Transformation      ....       0.000 sec  (  0.0%)
Orbital Orthonormalization  ....       0.000 sec  (  0.0%)
DIIS solution               ....       1.985 sec  (  0.7%)
Grid generation             ....       6.270 sec  (  2.2%)

-------------------------   --------------------
FINAL SINGLE POINT ENERGY     -2479.869451330996
-------------------------   --------------------


                            ***************************************
                            *     ORCA property calculations      *
                            ***************************************

                                    ---------------------
                                    Active property flags
                                    ---------------------
   (+) Dipole Moment
   (+) Nuclear properties (Hyperfine,Quadrupole)


------------------------------------------------------------------------------
                       ORCA ELECTRIC PROPERTIES CALCULATION
------------------------------------------------------------------------------

Dipole Moment Calculation                       ... on
Quadrupole Moment Calculation                   ... off
Polarizability Calculation                      ... off
GBWName                                         ... moess.gbw
Electron density file                           ... moess.scfp.tmp
The origin for moment calculation is the CENTER OF MASS  = ( 0.017048, -0.010539  0.007419)

-------------
DIPOLE MOMENT
-------------
                                X             Y             Z
Electronic contribution:      0.02411       0.25822       6.77552
Nuclear contribution   :     -0.17806       0.43493      -6.31438
                        -----------------------------------------
Total Dipole Moment    :     -0.15396       0.69315       0.46113
                        -----------------------------------------
Magnitude (a.u.)       :      0.84665
Magnitude (Debye)      :      2.15200



--------------------
Rotational spectrum 
--------------------
 
Rotational constants in cm-1:     0.006709     0.006430     0.004333 
Rotational constants in MHz :   201.123315   192.780205   129.912021 

 Dipole components along the rotational axes: 
x,y,z [a.u.] :     0.722882     0.003445     0.440725 
x,y,z [Debye]:     1.837421     0.008757     1.120234 

 
------------------------------------------------------------------------------
                                ORCA EPR/NMR CALCULATION
------------------------------------------------------------------------------

GBWName                      ... moess.gbw
Electron density file        ... moess.scfp.tmp
Spin density file            ... moess.scfr.tmp
Multiplicity                 ... 6
g-tensor                     ... 0
NMR chemical shifts          ... 0
Number of nuclei for epr/nmr ... 1
   Nucleus:   0Fe
       Hyperfine : Isotope=   57 I=   0.500 P=  17.280
       Quadrupole: Isotope=   57 I=   0.500 Q=   0.160
       Spin-Orbit: Zeff=  13.910
       Ncuelar Spin-Spin: Gn=   0.000
       rho(0)=Y f(grad)=Y a(iso)=N a(dip)=N a(orb)=N sigma(nmr)=N spin-spin(nmr)=all-N,DSO-N,PSO-N,FC-N,SD-N

-----------------------------------------
ELECTRIC AND MAGNETIC HYPERFINE STRUCTURE
-----------------------------------------

 -----------------------------------------------------------
 Nucleus   0Fe: A:ISTP=   57 I=  0.5 P= 17.2798 MHz/au**3
                Q:ISTP=   57 I=  0.5 Q=  0.1600 barn     
 -----------------------------------------------------------
 Raw EFG matrix (all values in a.u.**-3):
             0.0381       0.0410       0.0390
             0.0410       0.0378      -0.1254
             0.0390      -0.1254      -0.0759

 V(El)      -0.0267       0.0832      -0.0566
 V(Nuc)      0.0768       0.0379      -0.1147
         ----------   ----------   ----------
 V(Tot)      0.0501       0.1211      -0.1712 
 Orientation: 
  X      -0.9498164   -0.1817274   -0.2546056
  Y       0.0186920   -0.8454544    0.5337204
  Z      -0.3122490    0.5021773    0.8064233

Note: Tensor is right-handed

Moessbauer quadrupole splitting parameter (proper coordinate system)
 e**2qQ  =   -6.437 MHz =   -0.555 mm/s
 eta     =  0.415
 Delta-EQ=(1/2{e**2qQ}*sqrt(1+1/3*eta**2) =   -3.309 MHz =   -0.285 mm/s
 RHO(0)=  11190.249887563 a.u.**-3


------------------------------------------------------------------------------- 

Timings for individual modules:

Sum of individual times         ...      281.199 sec (=   4.687 min)
GTO integral calculation        ...        0.510 sec (=   0.008 min)   0.2 %
SCF iterations                  ...      280.364 sec (=   4.673 min)  99.7 %
EPR/NMR calculation             ...        0.325 sec (=   0.005 min)   0.1 %
                             ****ORCA TERMINATED NORMALLY****
TOTAL RUN TIME: 0 days 0 hours 4 minutes 41 seconds 425 msec
