
                                 *****************
                                 * O   R   C   A *
                                 *****************

           --- An Ab Initio, DFT and Semiempirical electronic structure package ---

                  #######################################################
                  #                        -***-                        #
                  #          Department of theory and spectroscopy      #
                  #               Directorship: Frank Neese             #
                  #        Max Planck Institute fuer Kohlenforschung    #
                  #                Kaiser Wilhelm Platz 1               #
                  #                 D-45470 Muelheim/Ruhr               #
                  #                      Germany                        #
                  #                                                     #
                  #                  All rights reserved                #
                  #                        -***-                        #
                  #######################################################


                         Program Version 4.1.2  - RELEASE  -


 With contributions from (in alphabetic order):
   Daniel Aravena         : Magnetic Properties
   Michael Atanasov       : Ab Initio Ligand Field Theory
   Alexander A. Auer      : GIAO ZORA
   Ute Becker             : Parallelization
   Giovanni Bistoni       : ED, Open-shell LED
   Martin Brehm           : Molecular dynamics
   Dmytro Bykov           : SCF Hessian
   Vijay G. Chilkuri      : MRCI spin determinant printing
   Dipayan Datta          : RHF DLPNO-CCSD density
   Achintya Kumar Dutta   : EOM-CC, STEOM-CC
   Dmitry Ganyushin       : Spin-Orbit,Spin-Spin,Magnetic field MRCI
   Miquel Garcia          : C-PCM Hessian
   Yang Guo               : DLPNO-NEVPT2, CIM, IAO-localization
   Andreas Hansen         : Spin unrestricted coupled pair/coupled cluster methods
   Benjamin Helmich-Paris : CASSCF linear response (MC-RPA)
   Lee Huntington         : MR-EOM, pCC
   Robert Izsak           : Overlap fitted RIJCOSX, COSX-SCS-MP3, EOM
   Christian Kollmar      : KDIIS, OOCD, Brueckner-CCSD(T), CCSD density
   Simone Kossmann        : Meta GGA functionals, TD-DFT gradient, OOMP2, MP2 Hessian
   Martin Krupicka        : AUTO-CI
   Lucas Lang             : DCDCAS
   Dagmar Lenk            : GEPOL surface, SMD
   Dimitrios Liakos       : Extrapolation schemes; parallel MDCI
   Dimitrios Manganas     : ROCIS; embedding schemes
   Dimitrios Pantazis     : SARC Basis sets
   Taras Petrenko         : DFT Hessian,TD-DFT gradient, ASA, ECA, R-Raman, ABS, FL, XAS/XES, NRVS
   Peter Pinski           : DLPNO-MP2, DLPNO-MP2 Gradient
   Christoph Reimann      : Effective Core Potentials
   Marius Retegan         : Local ZFS, SOC
   Christoph Riplinger    : Optimizer, TS searches, QM/MM, DLPNO-CCSD(T), (RO)-DLPNO pert. Triples
   Tobias Risthaus        : Range-separated hybrids, TD-DFT gradient, RPA, STAB
   Michael Roemelt        : Restricted open shell CIS
   Masaaki Saitow         : Open-shell DLPNO
   Barbara Sandhoefer     : DKH picture change effects
   Avijit Sen             : IP-ROCIS
   Kantharuban Sivalingam : CASSCF convergence, NEVPT2, FIC-MRCI
   Bernardo de Souza      : ESD, SOC TD-DFT
   Georgi Stoychev        : AutoAux, RI-MP2 NMR
   Willem Van den Heuvel  : Paramagnetic NMR
   Boris Wezisla          : Elementary symmetry handling
   Frank Wennmohs         : Technical directorship


 We gratefully acknowledge several colleagues who have allowed us to
 interface, adapt or use parts of their codes:
   Stefan Grimme, W. Hujo, H. Kruse,             : VdW corrections, initial TS optimization,
                  C. Bannwarth                     DFT functionals, gCP, sTDA/sTD-DF
   Ed Valeev                                     : LibInt (2-el integral package), F12 methods
   Garnet Chan, S. Sharma, J. Yang, R. Olivares  : DMRG
   Ulf Ekstrom                                   : XCFun DFT Library
   Mihaly Kallay                                 : mrcc  (arbitrary order and MRCC methods)
   Andreas Klamt, Michael Diedenhofen            : otool_cosmo (COSMO solvation model)
   Jiri Pittner, Ondrej Demel                    : Mk-CCSD
   Frank Weinhold                                : gennbo (NPA and NBO analysis)
   Christopher J. Cramer and Donald G. Truhlar   : smd solvation model
   Lars Goerigk                                  : TD-DFT with DH, B97 family of functionals
   V. Asgeirsson, H. Jonsson                     : NEB implementation
   FAccTs GmbH                                   : IRC, NEB, NEB-TS, Multilevel


 Your calculation uses the libint2 library for the computation of 2-el integrals
 For citations please refer to: http://libint.valeyev.net

 This ORCA versions uses:
   CBLAS   interface :  Fast vector & matrix operations
   LAPACKE interface :  Fast linear algebra routines
   SCALAPACK package :  Parallel linear algebra routines




***************************************
The coordinates will be read from file: geom.xyz
***************************************


----- Orbital basis set information -----
Your calculation utilizes the basis: def2-SVP
   F. Weigend and R. Ahlrichs, Phys. Chem. Chem. Phys. 7, 3297 (2005).

----- AuxJ basis set information -----
Your calculation utilizes the auxiliary basis: def2/J
   F. Weigend, Phys. Chem. Chem. Phys. 8, 1057 (2006).

================================================================================
                                        WARNINGS
                       Please study these warnings very carefully!
================================================================================


WARNING: your system is open-shell and RHF/RKS was chosen
  ===> : WILL SWITCH to UHF/UKS


INFO   : the flag for use of LIBINT has been found!

================================================================================
                                       INPUT FILE
================================================================================
NAME = moess.inp
|  1> ! bp86 def2-svp
|  2> 
|  3> * xyzfile -2 4 geom.xyz
|  4> 
|  5> %eprnmr
|  6> nuclei = all Fe {fgrad, rho}
|  7> end
|  8> 
|  9> 
| 10>                          ****END OF INPUT****
================================================================================

                       ****************************
                       * Single Point Calculation *
                       ****************************

---------------------------------
CARTESIAN COORDINATES (ANGSTROEM)
---------------------------------
  Fe    -0.173441   -0.037399    0.166692
  Cl    -0.578421    0.076477    2.598130
  N      1.094884   -1.484632   -0.085277
  N     -1.506822   -1.429696   -0.111515
  N     -1.426598    1.394223   -0.270701
  N      1.174313    1.275214   -0.314149
  O     -1.707660   -3.640462   -0.812817
  O     -4.458343    0.087408    1.196789
  O     -1.527600    3.564694   -1.072588
  O      3.332636    1.962055   -0.753113
  O      3.158891   -2.481976    0.071938
  C      0.500202   -2.799907   -0.433121
  C     -1.026334   -2.640379   -0.476880
  C     -2.987184   -1.273450   -0.111450
  C     -3.450493    0.083147    0.490989
  C     -2.874105    1.450454    0.063726
  C     -0.884398    2.535443   -0.745349
  C      0.650483    2.558809   -0.848147
  C      2.523239    1.119456   -0.291146
  C      3.129080   -0.115967    0.402910
  C      2.436154   -1.455601    0.085008
  C      0.973257   -3.274171   -1.828103
  C      0.756303   -3.905227    0.621339
  C     -3.503383   -1.294930   -1.581221
  C     -3.716474   -2.366314    0.703956
  C     -3.079079    2.449914    1.225650
  C     -3.785054    1.890427   -1.133702
  C      1.117430    3.750755    0.020218
  C      1.010169    2.780179   -2.333648
  C      2.987758    0.031071    1.959364
  C      3.667107    1.248970    2.596533
  C      4.643376   -0.217531    0.066049
  C      5.027360   -0.446573   -1.402273
  H      0.390685   -4.152805   -2.121983
  H      2.034178   -3.530850   -1.802514
  H      0.818044   -2.486739   -2.574397
  H      1.810614   -4.177975    0.639103
  H      0.147437   -4.775900    0.358680
  H      0.453353   -3.550653    1.612535
  H     -4.560094   -1.011231   -1.630661
  H     -3.383573   -2.307352   -1.973435
  H     -2.913773   -0.616196   -2.201774
  H     -3.541789   -3.341071    0.256269
  H     -4.785143   -2.143918    0.707103
  H     -3.366842   -2.366907    1.740865
  H     -4.133228    2.482386    1.510907
  H     -2.757834    3.436264    0.886916
  H     -2.478251    2.145927    2.086788
  H     -3.681182    2.965421   -1.270247
  H     -4.828151    1.647681   -0.907590
  H     -3.494915    1.392175   -2.061163
  H      2.192632    3.895805   -0.096330
  H      0.895653    3.542755    1.071701
  H      0.577609    4.652573   -0.283627
  H      2.085173    2.928026   -2.443963
  H      0.471552    3.660159   -2.701627
  H      0.711883    1.910263   -2.930028
  H      1.922952    0.044947    2.205842
  H      3.409492   -0.888737    2.386994
  H      3.438376    1.266842    3.668574
  H      3.299730    2.186410    2.164725
  H      4.756206    1.223945    2.486717
  H      5.048282   -1.035936    0.671120
  H      5.111863    0.710700    0.403537
  H      6.118472   -0.527756   -1.495867
  H      4.700671    0.390430   -2.025349
  H      4.595594   -1.374764   -1.789409

----------------------------
CARTESIAN COORDINATES (A.U.)
----------------------------
  NO LB      ZA    FRAG     MASS         X           Y           Z
   0 Fe   26.0000    0    55.850   -0.327756   -0.070674    0.315002
   1 Cl   17.0000    0    35.453   -1.093057    0.144521    4.909754
   2 N     7.0000    0    14.007    2.069031   -2.805548   -0.161150
   3 N     7.0000    0    14.007   -2.847481   -2.701734   -0.210733
   4 N     7.0000    0    14.007   -2.695880    2.634700   -0.511551
   5 N     7.0000    0    14.007    2.219130    2.409805   -0.593656
   6 O     8.0000    0    15.999   -3.227010   -6.879476   -1.536002
   7 O     8.0000    0    15.999   -8.425047    0.165177    2.261603
   8 O     8.0000    0    15.999   -2.886746    6.736295   -2.026898
   9 O     8.0000    0    15.999    6.297769    3.707747   -1.423177
  10 O     8.0000    0    15.999    5.969439   -4.690255    0.135943
  11 C     6.0000    0    12.011    0.945245   -5.291057   -0.818480
  12 C     6.0000    0    12.011   -1.939490   -4.989593   -0.901173
  13 C     6.0000    0    12.011   -5.644960   -2.406472   -0.210610
  14 C     6.0000    0    12.011   -6.520487    0.157125    0.927835
  15 C     6.0000    0    12.011   -5.431271    2.740961    0.120425
  16 C     6.0000    0    12.011   -1.671270    4.791293   -1.408505
  17 C     6.0000    0    12.011    1.229235    4.835448   -1.602766
  18 C     6.0000    0    12.011    4.768231    2.115465   -0.550186
  19 C     6.0000    0    12.011    5.913104   -0.219146    0.761390
  20 C     6.0000    0    12.011    4.603664   -2.750687    0.160642
  21 C     6.0000    0    12.011    1.839189   -6.187287   -3.454614
  22 C     6.0000    0    12.011    1.429206   -7.379810    1.174161
  23 C     6.0000    0    12.011   -6.620434   -2.447063   -2.988075
  24 C     6.0000    0    12.011   -7.023118   -4.471685    1.330284
  25 C     6.0000    0    12.011   -5.818616    4.629667    2.316143
  26 C     6.0000    0    12.011   -7.152715    3.572389   -2.142386
  27 C     6.0000    0    12.011    2.111637    7.087900    0.038206
  28 C     6.0000    0    12.011    1.908943    5.253777   -4.409956
  29 C     6.0000    0    12.011    5.646044    0.058716    3.702661
  30 C     6.0000    0    12.011    6.929828    2.360211    4.906736
  31 C     6.0000    0    12.011    8.774709   -0.411074    0.124815
  32 C     6.0000    0    12.011    9.500334   -0.843901   -2.649912
  33 H     1.0000    0     1.008    0.738288   -7.847664   -4.009967
  34 H     1.0000    0     1.008    3.844039   -6.672340   -3.406258
  35 H     1.0000    0     1.008    1.545879   -4.699256   -4.864905
  36 H     1.0000    0     1.008    3.421565   -7.895229    1.207730
  37 H     1.0000    0     1.008    0.278616   -9.025143    0.677807
  38 H     1.0000    0     1.008    0.856713   -6.709762    3.047250
  39 H     1.0000    0     1.008   -8.617329   -1.910950   -3.081503
  40 H     1.0000    0     1.008   -6.394026   -4.360263   -3.729252
  41 H     1.0000    0     1.008   -5.506233   -1.164442   -4.160750
  42 H     1.0000    0     1.008   -6.693011   -6.313709    0.484278
  43 H     1.0000    0     1.008   -9.042610   -4.051418    1.336231
  44 H     1.0000    0     1.008   -6.362409   -4.472806    3.289758
  45 H     1.0000    0     1.008   -7.810669    4.691030    2.855200
  46 H     1.0000    0     1.008   -5.211551    6.493598    1.676028
  47 H     1.0000    0     1.008   -4.683216    4.055214    3.943458
  48 H     1.0000    0     1.008   -6.956426    5.603834   -2.400419
  49 H     1.0000    0     1.008   -9.123883    3.113666   -1.715097
  50 H     1.0000    0     1.008   -6.604432    2.630829   -3.895034
  51 H     1.0000    0     1.008    4.143474    7.362005   -0.182037
  52 H     1.0000    0     1.008    1.692539    6.694837    2.025221
  53 H     1.0000    0     1.008    1.091523    8.792089   -0.535977
  54 H     1.0000    0     1.008    3.940406    5.533167   -4.618421
  55 H     1.0000    0     1.008    0.891104    6.916698   -5.105335
  56 H     1.0000    0     1.008    1.345264    3.609874   -5.536950
  57 H     1.0000    0     1.008    3.633853    0.084938    4.168437
  58 H     1.0000    0     1.008    6.443006   -1.679470    4.510765
  59 H     1.0000    0     1.008    6.497589    2.393984    6.932600
  60 H     1.0000    0     1.008    6.235586    4.131716    4.090737
  61 H     1.0000    0     1.008    8.987927    2.312921    4.699214
  62 H     1.0000    0     1.008    9.539870   -1.957635    1.268233
  63 H     1.0000    0     1.008    9.660021    1.343028    0.762574
  64 H     1.0000    0     1.008   11.562236   -0.997314   -2.826779
  65 H     1.0000    0     1.008    8.882981    0.737806   -3.827355
  66 H     1.0000    0     1.008    8.684414   -2.597927   -3.381493

--------------------------------
INTERNAL COORDINATES (ANGSTROEM)
--------------------------------
 Fe     0   0   0     0.000000000000     0.00000000     0.00000000
 Cl     1   0   0     2.467563026879     0.00000000     0.00000000
 N      1   2   0     1.940778204452   105.64029168     0.00000000
 N      1   2   3     1.947766660106    93.51894122    84.76730454
 N      1   2   3     1.952244004724    94.67901921   178.09632663
 N      1   2   3     1.941803748983   109.06964801   263.28510067
 O      4   1   2     2.328013467359   141.34324497   243.46131477
 O      4   1   2     3.567175369487   102.12385391    57.12458365
 O      5   1   2     2.316067470221   142.44664342   111.84968920
 O      6   1   2     2.307119009697   153.85288894    94.68171092
 O      3   1   2     2.297724201598   154.39999575   290.11473447
 C      3   1   2     1.484786333142   115.41911108    95.95727639
 C      7   4   1     1.255876105806    27.92024378     9.09347802
 C      4   1   2     1.488584719720   127.28299432    75.01941603
 C      8   4   1     1.230420017157    27.17722859    49.58848418
 C      5   1   2     1.486700998432   127.03632565   302.91545075
 C      9   5   1     1.257040889123    28.38628271     0.63627833
 C      6   1   2     1.485654016563   115.36097516   262.16018654
 C     10   6   1     1.256387713844    29.27384796   345.38105592
 C     19  10   6     1.541112272791   116.74122291   183.38996803
 C     11   3   1     1.255374540404    29.38752503   341.84419282
 C     12   3   1     1.547476059603   111.11475680   117.62844419
 C     12   3   1     1.548937027836   113.98047865   242.78958301
 C     14   4   1     1.557931189251   109.14849461   103.28584892
 C     14   4   1     1.546319039342   113.25754658   225.36920913
 C     16   5   1     1.546286523919   108.81672270   105.06994504
 C     16   5   1     1.567558016953   113.86543551   226.08695425
 C     18   6   1     1.546878321314   110.94914062   121.28560602
 C     18   6   1     1.544374279926   112.79652300   246.60501522
 C     20  19  10     1.569758304722   109.63715738   104.35547394
 C     30  20  19     1.533224501684   116.52366196   300.32647864
 C     20  19  10     1.554632739599   109.73715223   345.91855724
 C     32  20  19     1.534885482928   117.43319716   296.16994421
 H     22  12   3     1.094419158979   108.98908907   189.47273805
 H     22  12   3     1.091829782614   110.36277059    69.11567726
 H     22  12   3     1.095944781651   110.50931102   308.71125088
 H     23  12   3     1.089164228168   110.47821411   291.36875172
 H     23  12   3     1.094430915666   108.20021698   170.80773144
 H     23  12   3     1.095431848356   109.83294144    52.28020043
 H     24  14   4     1.095247722537   111.01993363   189.77240263
 H     24  14   4     1.092329878736   108.37169504    69.78679541
 H     24  14   4     1.092431151453   110.39602707   311.42695444
 H     25  14   4     1.086779512248   109.92986747   296.73885741
 H     25  14   4     1.091569198899   108.61830829   176.39206312
 H     25  14   4     1.094268322375   110.44885874    58.03616450
 H     26  16   5     1.092545697458   110.07832387   181.88738490
 H     26  16   5     1.091249465192   108.17706426    61.95135985
 H     26  16   5     1.093142733954   109.83701115   302.46227501
 H     27  16   5     1.088598194673   108.51371771   284.16692949
 H     27  16   5     1.094579192416   109.49654131   164.54525785
 H     27  16   5     1.092071243714   111.48707015    43.70343789
 H     28  18   6     1.091183888998   109.87153765    68.93235453
 H     28  18   6     1.094561801370   109.37087935   309.18197199
 H     28  18   6     1.094076871701   109.28702920   190.08542609
 H     29  18   6     1.090716156775   110.25872483   292.30223548
 H     29  18   6     1.095391079720   108.89041544   171.54966208
 H     29  18   6     1.096082793064   110.25601262    52.34653550
 H     30  20  19     1.093048839483   108.20847878    63.68648223
 H     30  20  19     1.098532539582   105.84182149   178.40516895
 H     31  30  20     1.096316188162   109.07941197   176.37527580
 H     31  30  20     1.095544505072   111.55051032    57.71527424
 H     31  30  20     1.094907501245   112.38934424   295.88987015
 H     32  20  19     1.095375062662   106.80875988   173.57498241
 H     32  20  19     1.093156442909   107.16201280    58.28102778
 H     33  32  20     1.098123814908   109.94636125   181.64256719
 H     33  32  20     1.093399938955   110.86458169    62.60102979
 H     33  32  20     1.094456346198   111.48428009   300.64381029

---------------------------
INTERNAL COORDINATES (A.U.)
---------------------------
 Fe     0   0   0     0.000000000000     0.00000000     0.00000000
 Cl     1   0   0     4.663018338991     0.00000000     0.00000000
 N      1   2   0     3.667539293097   105.64029168     0.00000000
 N      1   2   3     3.680745560382    93.51894122    84.76730454
 N      1   2   3     3.689206515519    94.67901921   178.09632663
 N      1   2   3     3.669477291400   109.06964801   263.28510067
 O      4   1   2     4.399307889389   141.34324497   243.46131477
 O      4   1   2     6.740984519999   102.12385391    57.12458365
 O      5   1   2     4.376733226401   142.44664342   111.84968920
 O      6   1   2     4.359823086691   153.85288894    94.68171092
 O      3   1   2     4.342069472303   154.39999575   290.11473447
 C      3   1   2     2.805839537027   115.41911108    95.95727639
 C      7   4   1     2.373261898109    27.92024378     9.09347802
 C      4   1   2     2.813017447411   127.28299432    75.01941603
 C      8   4   1     2.325156862122    27.17722859    49.58848418
 C      5   1   2     2.809457730064   127.03632565   302.91545075
 C      9   5   1     2.375463019582    28.38628271     0.63627833
 C      6   1   2     2.807479221064   115.36097516   262.16018654
 C     10   6   1     2.374228697189    29.27384796   345.38105592
 C     19  10   6     2.912280137199   116.74122291   183.38996803
 C     11   3   1     2.372314076860    29.38752503   341.84419282
 C     12   3   1     2.924305951450   111.11475680   117.62844419
 C     12   3   1     2.927066781300   113.98047865   242.78958301
 C     14   4   1     2.944063283179   109.14849461   103.28584892
 C     14   4   1     2.922119500025   113.25754658   225.36920913
 C     16   5   1     2.922058054779   108.81672270   105.06994504
 C     16   5   1     2.962255351074   113.86543551   226.08695425
 C     18   6   1     2.923176389783   110.94914062   121.28560602
 C     18   6   1     2.918444437332   112.79652300   246.60501522
 C     20  19  10     2.966413292373   109.63715738   104.35547394
 C     30  20  19     2.897374410000   116.52366196   300.32647864
 C     20  19  10     2.937830116670   109.73715223   345.91855724
 C     32  20  19     2.900513209666   117.43319716   296.16994421
 H     22  12   3     2.068152486186   108.98908907   189.47273805
 H     22  12   3     2.063259273999   110.36277059    69.11567726
 H     22  12   3     2.071035495221   110.50931102   308.71125088
 H     23  12   3     2.058222106101   110.47821411   291.36875172
 H     23  12   3     2.068174703106   108.20021698   170.80773144
 H     23  12   3     2.070066191767   109.83294144    52.28020043
 H     24  14   4     2.069718244395   111.01993363   189.77240263
 H     24  14   4     2.064204318711   108.37169504    69.78679541
 H     24  14   4     2.064395696410   110.39602707   311.42695444
 H     25  14   4     2.053715646106   109.92986747   296.73885741
 H     25  14   4     2.062766842144   108.61830829   176.39206312
 H     25  14   4     2.067867446315   110.44885874    58.03616450
 H     26  16   5     2.064612156990   110.07832387   181.88738490
 H     26  16   5     2.062162633000   108.17706426    61.95135985
 H     26  16   5     2.065740392459   109.83701115   302.46227501
 H     27  16   5     2.057152457813   108.51371771   284.16692949
 H     27  16   5     2.068454905554   109.49654131   164.54525785
 H     27  16   5     2.063715569349   111.48707015    43.70343789
 H     28  18   6     2.062038711953   109.87153765    68.93235453
 H     28  18   6     2.068422041241   109.37087935   309.18197199
 H     28  18   6     2.067505656971   109.28702920   190.08542609
 H     29  18   6     2.061154826148   110.25872483   292.30223548
 H     29  18   6     2.069989150211   108.89041544   171.54966208
 H     29  18   6     2.071296298995   110.25601262    52.34653550
 H     30  20  19     2.065562957624   108.20847878    63.68648223
 H     30  20  19     2.075925649011   105.84182149   178.40516895
 H     31  30  20     2.071737351811   109.07941197   176.37527580
 H     31  30  20     2.070279082108   111.55051032    57.71527424
 H     31  30  20     2.069075319329   112.38934424   295.88987015
 H     32  20  19     2.069958882358   106.80875988   173.57498241
 H     32  20  19     2.065766298630   107.16201280    58.28102778
 H     33  32  20     2.075153271314   109.94636125   181.64256719
 H     33  32  20     2.066226439470   110.86458169    62.60102979
 H     33  32  20     2.068222759846   111.48428009   300.64381029

---------------------
BASIS SET INFORMATION
---------------------
There are 6 groups of distinct atoms

 Group   1 Type Fe  : 14s9p5d1f contracted to 5s3p2d1f pattern {63311/531/41/1}
 Group   2 Type Cl  : 10s7p1d contracted to 4s3p1d pattern {5311/511/1}
 Group   3 Type N   : 7s4p1d contracted to 3s2p1d pattern {511/31/1}
 Group   4 Type O   : 7s4p1d contracted to 3s2p1d pattern {511/31/1}
 Group   5 Type C   : 7s4p1d contracted to 3s2p1d pattern {511/31/1}
 Group   6 Type H   : 4s1p contracted to 2s1p pattern {31/1}

Atom   0Fe   basis set group =>   1
Atom   1Cl   basis set group =>   2
Atom   2N    basis set group =>   3
Atom   3N    basis set group =>   3
Atom   4N    basis set group =>   3
Atom   5N    basis set group =>   3
Atom   6O    basis set group =>   4
Atom   7O    basis set group =>   4
Atom   8O    basis set group =>   4
Atom   9O    basis set group =>   4
Atom  10O    basis set group =>   4
Atom  11C    basis set group =>   5
Atom  12C    basis set group =>   5
Atom  13C    basis set group =>   5
Atom  14C    basis set group =>   5
Atom  15C    basis set group =>   5
Atom  16C    basis set group =>   5
Atom  17C    basis set group =>   5
Atom  18C    basis set group =>   5
Atom  19C    basis set group =>   5
Atom  20C    basis set group =>   5
Atom  21C    basis set group =>   5
Atom  22C    basis set group =>   5
Atom  23C    basis set group =>   5
Atom  24C    basis set group =>   5
Atom  25C    basis set group =>   5
Atom  26C    basis set group =>   5
Atom  27C    basis set group =>   5
Atom  28C    basis set group =>   5
Atom  29C    basis set group =>   5
Atom  30C    basis set group =>   5
Atom  31C    basis set group =>   5
Atom  32C    basis set group =>   5
Atom  33H    basis set group =>   6
Atom  34H    basis set group =>   6
Atom  35H    basis set group =>   6
Atom  36H    basis set group =>   6
Atom  37H    basis set group =>   6
Atom  38H    basis set group =>   6
Atom  39H    basis set group =>   6
Atom  40H    basis set group =>   6
Atom  41H    basis set group =>   6
Atom  42H    basis set group =>   6
Atom  43H    basis set group =>   6
Atom  44H    basis set group =>   6
Atom  45H    basis set group =>   6
Atom  46H    basis set group =>   6
Atom  47H    basis set group =>   6
Atom  48H    basis set group =>   6
Atom  49H    basis set group =>   6
Atom  50H    basis set group =>   6
Atom  51H    basis set group =>   6
Atom  52H    basis set group =>   6
Atom  53H    basis set group =>   6
Atom  54H    basis set group =>   6
Atom  55H    basis set group =>   6
Atom  56H    basis set group =>   6
Atom  57H    basis set group =>   6
Atom  58H    basis set group =>   6
Atom  59H    basis set group =>   6
Atom  60H    basis set group =>   6
Atom  61H    basis set group =>   6
Atom  62H    basis set group =>   6
Atom  63H    basis set group =>   6
Atom  64H    basis set group =>   6
Atom  65H    basis set group =>   6
Atom  66H    basis set group =>   6
-------------------------------
AUXILIARY BASIS SET INFORMATION
-------------------------------
There are 6 groups of distinct atoms

 Group   1 Type Fe  : 19s5p5d3f3g contracted to 8s5p5d2f3g pattern {121111111/11111/11111/21/111}
 Group   2 Type Cl  : 14s5p5d2f1g contracted to 8s4p3d1f1g pattern {71111111/2111/311/2/1}
 Group   3 Type N   : 12s5p4d2f1g contracted to 6s4p3d1f1g pattern {711111/2111/211/2/1}
 Group   4 Type O   : 12s5p4d2f1g contracted to 6s4p3d1f1g pattern {711111/2111/211/2/1}
 Group   5 Type C   : 12s5p4d2f1g contracted to 6s4p3d1f1g pattern {711111/2111/211/2/1}
 Group   6 Type H   : 5s2p1d contracted to 3s1p1d pattern {311/2/1}

Atom   0Fe   basis set group =>   1
Atom   1Cl   basis set group =>   2
Atom   2N    basis set group =>   3
Atom   3N    basis set group =>   3
Atom   4N    basis set group =>   3
Atom   5N    basis set group =>   3
Atom   6O    basis set group =>   4
Atom   7O    basis set group =>   4
Atom   8O    basis set group =>   4
Atom   9O    basis set group =>   4
Atom  10O    basis set group =>   4
Atom  11C    basis set group =>   5
Atom  12C    basis set group =>   5
Atom  13C    basis set group =>   5
Atom  14C    basis set group =>   5
Atom  15C    basis set group =>   5
Atom  16C    basis set group =>   5
Atom  17C    basis set group =>   5
Atom  18C    basis set group =>   5
Atom  19C    basis set group =>   5
Atom  20C    basis set group =>   5
Atom  21C    basis set group =>   5
Atom  22C    basis set group =>   5
Atom  23C    basis set group =>   5
Atom  24C    basis set group =>   5
Atom  25C    basis set group =>   5
Atom  26C    basis set group =>   5
Atom  27C    basis set group =>   5
Atom  28C    basis set group =>   5
Atom  29C    basis set group =>   5
Atom  30C    basis set group =>   5
Atom  31C    basis set group =>   5
Atom  32C    basis set group =>   5
Atom  33H    basis set group =>   6
Atom  34H    basis set group =>   6
Atom  35H    basis set group =>   6
Atom  36H    basis set group =>   6
Atom  37H    basis set group =>   6
Atom  38H    basis set group =>   6
Atom  39H    basis set group =>   6
Atom  40H    basis set group =>   6
Atom  41H    basis set group =>   6
Atom  42H    basis set group =>   6
Atom  43H    basis set group =>   6
Atom  44H    basis set group =>   6
Atom  45H    basis set group =>   6
Atom  46H    basis set group =>   6
Atom  47H    basis set group =>   6
Atom  48H    basis set group =>   6
Atom  49H    basis set group =>   6
Atom  50H    basis set group =>   6
Atom  51H    basis set group =>   6
Atom  52H    basis set group =>   6
Atom  53H    basis set group =>   6
Atom  54H    basis set group =>   6
Atom  55H    basis set group =>   6
Atom  56H    basis set group =>   6
Atom  57H    basis set group =>   6
Atom  58H    basis set group =>   6
Atom  59H    basis set group =>   6
Atom  60H    basis set group =>   6
Atom  61H    basis set group =>   6
Atom  62H    basis set group =>   6
Atom  63H    basis set group =>   6
Atom  64H    basis set group =>   6
Atom  65H    basis set group =>   6
Atom  66H    basis set group =>   6
------------------------------------------------------------------------------
                           ORCA GTO INTEGRAL CALCULATION
                           -- RI-GTO INTEGRALS CHOSEN --
------------------------------------------------------------------------------

                         BASIS SET STATISTICS AND STARTUP INFO

Gaussian basis set:
 # of primitive gaussian shells          ...  589
 # of primitive gaussian functions       ... 1091
 # of contracted shells                  ...  307
 # of contracted basis functions         ...  653
 Highest angular momentum                ...    3
 Maximum contraction depth               ...    6
Auxiliary gaussian basis set:
 # of primitive gaussian shells          ... 1078
 # of primitive gaussian functions       ... 2898
 # of contracted shells                  ...  675
 # of contracted aux-basis functions     ... 2033
 Highest angular momentum                ...    4
 Maximum contraction depth               ...   12
Ratio of auxiliary to basis functions    ...  3.11
Integral package used                  ... LIBINT
 One Electron integrals                  ... done
 Ordering auxiliary basis shells         ... done
 Integral threshhold             Thresh  ...  1.000e-10
 Primitive cut-off               TCut    ...  1.000e-11
 Pre-screening matrix                    ... done
 Shell pair data                         ... 
 Ordering of the shell pairs             ... done (   0.007 sec) 33396 of 47278 pairs
 Determination of significant pairs      ... done (   0.000 sec)
 Creation of shell pair data             ... done (   0.004 sec)
 Storage of shell pair data              ... done (   0.006 sec)
 Shell pair data done in (   0.017 sec)
 Computing two index integrals           ... done
 Cholesky decomposition of the V-matrix  ... done


Timings:
 Total evaluation time                   ...   0.769 sec (  0.013 min)
 One electron matrix time                ...   0.274 sec (  0.005 min) = 35.7%
 Schwartz matrix evaluation time         ...   0.276 sec (  0.005 min) = 35.8%
 Two index repulsion integral time       ...   0.084 sec (  0.001 min) = 10.9%
 Cholesky decomposition of V             ...   0.100 sec (  0.002 min) = 13.0%
 Three index repulsion integral time     ...   0.000 sec (  0.000 min) =  0.0%

-------------------------------------------------------------------------------
                                 ORCA SCF
-------------------------------------------------------------------------------

------------
SCF SETTINGS
------------
Hamiltonian:
 Density Functional     Method          .... DFT(GTOs)
 Exchange Functional    Exchange        .... B88
   X-Alpha parameter    XAlpha          ....  0.666667
   Becke's b parameter  XBeta           ....  0.004200
 Correlation Functional Correlation     .... P86
 LDA part of GGA corr.  LDAOpt          .... PW91-LDA
 Gradients option       PostSCFGGA      .... off
   Density functional embedding theory  .... OFF
 RI-approximation to the Coulomb term is turned on
   Number of auxiliary basis functions  .... 2033


General Settings:
 Integral files         IntName         .... moess
 Hartree-Fock type      HFTyp           .... UHF
 Total Charge           Charge          ....   -2
 Multiplicity           Mult            ....    4
 Number of Electrons    NEL             ....  279
 Basis Dimension        Dim             ....  653
 Nuclear Repulsion      ENuc            ....   5019.3580063113 Eh

Convergence Acceleration:
 DIIS                   CNVDIIS         .... on
   Start iteration      DIISMaxIt       ....    12
   Startup error        DIISStart       ....  0.200000
   # of expansion vecs  DIISMaxEq       ....     5
   Bias factor          DIISBfac        ....   1.050
   Max. coefficient     DIISMaxC        ....  10.000
 Newton-Raphson         CNVNR           .... off
 SOSCF                  CNVSOSCF        .... off
 Level Shifting         CNVShift        .... on
   Level shift para.    LevelShift      ....    0.2500
   Turn off err/grad.   ShiftErr        ....    0.0010
 Zerner damping         CNVZerner       .... off
 Static damping         CNVDamp         .... on
   Fraction old density DampFac         ....    0.7000
   Max. Damping (<1)    DampMax         ....    0.9800
   Min. Damping (>=0)   DampMin         ....    0.0000
   Turn off err/grad.   DampErr         ....    0.1000
 Fernandez-Rico         CNVRico         .... off

SCF Procedure:
 Maximum # iterations   MaxIter         ....   125
 SCF integral mode      SCFMode         .... Direct
   Integral package                     .... LIBINT
 Reset frequency        DirectResetFreq ....    20
 Integral Threshold     Thresh          ....  1.000e-10 Eh
 Primitive CutOff       TCut            ....  1.000e-11 Eh

Convergence Tolerance:
 Convergence Check Mode ConvCheckMode   .... Total+1el-Energy
 Convergence forced     ConvForced      .... 0
 Energy Change          TolE            ....  1.000e-06 Eh
 1-El. energy change                    ....  1.000e-03 Eh
 DIIS Error             TolErr          ....  1.000e-06


Diagonalization of the overlap matrix:
Smallest eigenvalue                        ... 6.800e-04
Time for diagonalization                   ...    0.063 sec
Threshold for overlap eigenvalues          ... 1.000e-08
Number of eigenvalues below threshold      ... 0
Time for construction of square roots      ...    0.038 sec
Total time needed                          ...    0.102 sec

-------------------
DFT GRID GENERATION
-------------------

General Integration Accuracy     IntAcc      ...  4.340
Radial Grid Type                 RadialGrid  ... Gauss-Chebyshev
Angular Grid (max. acc.)         AngularGrid ... Lebedev-110
Angular grid pruning method      GridPruning ... 3 (G Style)
Weight generation scheme         WeightScheme... Becke
Basis function cutoff            BFCut       ...    1.0000e-10
Integration weight cutoff        WCut        ...    1.0000e-14
Grids for H and He will be reduced by one unit

# of grid points (after initial pruning)     ...  83572 (   0.1 sec)
# of grid points (after weights+screening)   ...  71724 (   1.3 sec)
nearest neighbour list constructed           ...    0.0 sec
Grid point re-assignment to atoms done       ...    0.0 sec
Grid point division into batches done        ...    0.1 sec
Reduced shell lists constructed in    1.1 sec

Total number of grid points                  ...    71724
Total number of batches                      ...     1157
Average number of points per batch           ...       61
Average number of grid points per atom       ...     1071
Average number of shells per batch           ...   125.94 (41.02%)
Average number of basis functions per batch  ...   245.68 (37.62%)
Average number of large shells per batch     ...    73.20 (58.12%)
Average number of large basis fcns per batch ...   143.88 (58.56%)
Maximum spatial batch extension              ...  20.17, 19.55, 21.39 au
Average spatial batch extension              ...   2.91,  2.97,  3.02 au

Time for grid setup =    2.399 sec

------------------------------
INITIAL GUESS: MODEL POTENTIAL
------------------------------
Loading Hartree-Fock densities                     ... done
Calculating cut-offs                               ... done
Setting up the integral package                    ... done
Initializing the effective Hamiltonian             ... done
Starting the Coulomb interaction                   ... done (   3.4 sec)
Reading the grid                                   ... done
Mapping shells                                     ... done
Starting the XC term evaluation                    ... done (   1.6 sec)
  promolecular density results
     # of electrons  =    276.988754852
     EX              =   -272.426179183
     EC              =    -10.762430911
     EX+EC           =   -283.188610094
Transforming the Hamiltonian                       ... done (   0.0 sec)
Diagonalizing the Hamiltonian                      ... done (   0.1 sec)
Back transforming the eigenvectors                 ... done (   0.0 sec)
Now organizing SCF variables                       ... done
                      ------------------
                      INITIAL GUESS DONE (   7.6 sec)
                      ------------------
--------------
SCF ITERATIONS
--------------
ITER       Energy         Delta-E        Max-DP      RMS-DP      [F,P]     Damp
               ***  Starting incremental Fock matrix formation  ***
  0  -3175.9193433031   0.000000000000 0.11831835  0.00092539  0.2747315 0.7000
  1  -3176.4062848409  -0.486941537803 0.05574823  0.00064597  0.1696666 0.7000
                               ***Turning on DIIS***
  2  -3176.6247740956  -0.218489254675 0.09251435  0.00108968  0.0344041 0.0000
  3  -3176.8064377947  -0.181663699183 0.02019126  0.00018173  0.3191119 0.7000
  4  -3176.8920162209  -0.085578426212 0.02449578  0.00019114  0.2282341 0.7000
  5  -3176.9565565563  -0.064540335345 0.02049673  0.00014818  0.1415599 0.7000
  6  -3176.9898378591  -0.033281302797 0.05260027  0.00036159  0.0919576 0.0000
  7  -3177.0318911220  -0.042053262929 0.00825665  0.00004962  0.0028015 0.0000
  8  -3177.0320419434  -0.000150821434 0.00398935  0.00002261  0.0115243 0.0000
  9  -3177.0323963290  -0.000354385573 0.00235279  0.00001268  0.0021608 0.0000
 10  -3177.0324559611  -0.000059632038 0.00208519  0.00000885  0.0010724 0.0000
 11  -3177.0324835939  -0.000027632826 0.00331734  0.00001689  0.0004785 0.0000
 12  -3177.0325065955  -0.000023001612 0.00071663  0.00000341  0.0009933 0.0000
 13  -3177.0325109330  -0.000004337468 0.00077560  0.00000336  0.0001976 0.0000
 14  -3177.0325095733   0.000001359687 0.00035105  0.00000212  0.0007216 0.0000
 15  -3177.0325126966  -0.000003123273 0.00041056  0.00000125  0.0002709 0.0000
 16  -3177.0325126763   0.000000020225 0.00008908  0.00000063  0.0003067 0.0000
                 **** Energy Check signals convergence ****

               *****************************************************
               *                     SUCCESS                       *
               *           SCF CONVERGED AFTER  17 CYCLES          *
               *****************************************************

Setting up the final grid:

General Integration Accuracy     IntAcc      ...  4.670
Radial Grid Type                 RadialGrid  ... Gauss-Chebyshev
Angular Grid (max. acc.)         AngularGrid ... Lebedev-302
Angular grid pruning method      GridPruning ... 3 (G Style)
Weight generation scheme         WeightScheme... Becke
Basis function cutoff            BFCut       ...    1.0000e-10
Integration weight cutoff        WCut        ...    1.0000e-14
Grids for H and He will be reduced by one unit

# of grid points (after initial pruning)     ... 324346 (   0.2 sec)
# of grid points (after weights+screening)   ... 270227 (   4.9 sec)
nearest neighbour list constructed           ...    0.0 sec
Grid point re-assignment to atoms done       ...    0.0 sec
Grid point division into batches done        ...    0.8 sec
Reduced shell lists constructed in    4.3 sec

Total number of grid points                  ...   270227
Total number of batches                      ...     4255
Average number of points per batch           ...       63
Average number of grid points per atom       ...     4033
Average number of shells per batch           ...   113.31 (36.91%)
Average number of basis functions per batch  ...   218.72 (33.50%)
Average number of large shells per batch     ...    64.65 (57.06%)
Average number of large basis fcns per batch ...   125.47 (57.36%)
Maximum spatial batch extension              ...  20.71, 22.41, 21.52 au
Average spatial batch extension              ...   1.91,  1.96,  1.99 au

Final grid set up in    9.4 sec
Final integration                            ... done (  11.9 sec)
Change in XC energy                          ...     0.000137805
Integrated number of electrons               ...   279.000045984
Previous integrated no of electrons          ...   279.004502508

----------------
TOTAL SCF ENERGY
----------------

Total Energy       :        -3177.03237537 Eh          -86451.44604 eV

Components:
Nuclear Repulsion  :         5019.35800631 Eh          136583.67513 eV
Electronic Energy  :        -8196.39038169 Eh         -223035.12117 eV
One Electron Energy:       -14427.51715619 Eh         -392592.70085 eV
Two Electron Energy:         6231.12677450 Eh          169557.57967 eV

Virial components:
Potential Energy   :        -6334.01893420 Eh         -172357.41768 eV
Kinetic Energy     :         3156.98655883 Eh           85905.97164 eV
Virial Ratio       :            2.00634967


DFT components:
N(Alpha)           :      141.000020640616 electrons
N(Beta)            :      138.000025343781 electrons
N(Total)           :      279.000045984398 electrons
E(X)               :     -276.367337655242 Eh       
E(C)               :      -10.813935126737 Eh       
E(XC)              :     -287.181272781979 Eh       
DFET-embed. en.    :        0.000000000000 Eh       

---------------
SCF CONVERGENCE
---------------

  Last Energy change         ...   -5.0332e-07  Tolerance :   1.0000e-06
  Last MAX-Density change    ...    1.4637e-04  Tolerance :   1.0000e-05
  Last RMS-Density change    ...    3.5546e-07  Tolerance :   1.0000e-06
  Last DIIS Error            ...    4.0942e-05  Tolerance :   1.0000e-06

             **** THE GBW FILE WAS UPDATED (moess.gbw) ****
             **** DENSITY FILE WAS UPDATED (moess.scfp.tmp) ****
             **** ENERGY FILE WAS UPDATED (moess.en.tmp) ****
----------------------
UHF SPIN CONTAMINATION
----------------------

Warning: in a DFT calculation there is little theoretical justification to 
         calculate <S**2> as in Hartree-Fock theory. We will do it anyways
         but you should keep in mind that the values have only limited relevance

Expectation value of <S**2>     :     3.779363
Ideal value S*(S+1) for S=1.5   :     3.750000
Deviation                       :     0.029363

----------------
ORBITAL ENERGIES
----------------
                 SPIN UP ORBITALS
  NO   OCC          E(Eh)            E(eV) 
   0   1.0000    -254.600047     -6928.0195 
   1   1.0000    -100.389280     -2731.7312 
   2   1.0000     -29.379473      -799.4561 
   3   1.0000     -25.337072      -689.4568 
   4   1.0000     -25.322228      -689.0529 
   5   1.0000     -25.317014      -688.9110 
   6   1.0000     -18.562108      -505.1006 
   7   1.0000     -18.515048      -503.8201 
   8   1.0000     -18.513800      -503.7861 
   9   1.0000     -18.513093      -503.7669 
  10   1.0000     -18.511393      -503.7206 
  11   1.0000     -13.788156      -375.1948 
  12   1.0000     -13.787667      -375.1815 
  13   1.0000     -13.782851      -375.0504 
  14   1.0000     -13.781904      -375.0247 
  15   1.0000      -9.785774      -266.2844 
  16   1.0000      -9.764860      -265.7153 
  17   1.0000      -9.763303      -265.6730 
  18   1.0000      -9.761889      -265.6345 
  19   1.0000      -9.761397      -265.6211 
  20   1.0000      -9.750137      -265.3147 
  21   1.0000      -9.748728      -265.2764 
  22   1.0000      -9.732850      -264.8443 
  23   1.0000      -9.730982      -264.7935 
  24   1.0000      -9.710537      -264.2371 
  25   1.0000      -9.708914      -264.1930 
  26   1.0000      -9.707589      -264.1569 
  27   1.0000      -9.706065      -264.1155 
  28   1.0000      -9.699026      -263.9239 
  29   1.0000      -9.698204      -263.9015 
  30   1.0000      -9.697235      -263.8752 
  31   1.0000      -9.692774      -263.7538 
  32   1.0000      -9.692634      -263.7500 
  33   1.0000      -9.689411      -263.6623 
  34   1.0000      -9.688034      -263.6248 
  35   1.0000      -9.686055      -263.5710 
  36   1.0000      -9.684258      -263.5221 
  37   1.0000      -8.870211      -241.3707 
  38   1.0000      -6.696954      -182.2334 
  39   1.0000      -6.693337      -182.1350 
  40   1.0000      -6.692480      -182.1116 
  41   1.0000      -3.103088       -84.4393 
  42   1.0000      -1.943873       -52.8955 
  43   1.0000      -1.908890       -51.9435 
  44   1.0000      -1.897713       -51.6394 
  45   1.0000      -0.734804       -19.9950 
  46   1.0000      -0.699196       -19.0261 
  47   1.0000      -0.696442       -18.9512 
  48   1.0000      -0.693499       -18.8711 
  49   1.0000      -0.689502       -18.7623 
  50   1.0000      -0.592935       -16.1346 
  51   1.0000      -0.583104       -15.8671 
  52   1.0000      -0.576342       -15.6831 
  53   1.0000      -0.568498       -15.4696 
  54   1.0000      -0.522676       -14.2227 
  55   1.0000      -0.491497       -13.3743 
  56   1.0000      -0.483764       -13.1639 
  57   1.0000      -0.474134       -12.9018 
  58   1.0000      -0.467550       -12.7227 
  59   1.0000      -0.465935       -12.6787 
  60   1.0000      -0.422790       -11.5047 
  61   1.0000      -0.416631       -11.3371 
  62   1.0000      -0.414539       -11.2802 
  63   1.0000      -0.407092       -11.0775 
  64   1.0000      -0.405112       -11.0236 
  65   1.0000      -0.402267       -10.9462 
  66   1.0000      -0.383778       -10.4431 
  67   1.0000      -0.355670        -9.6783 
  68   1.0000      -0.350131        -9.5275 
  69   1.0000      -0.338606        -9.2139 
  70   1.0000      -0.316268        -8.6061 
  71   1.0000      -0.312453        -8.5023 
  72   1.0000      -0.279664        -7.6100 
  73   1.0000      -0.259094        -7.0503 
  74   1.0000      -0.240850        -6.5539 
  75   1.0000      -0.233837        -6.3630 
  76   1.0000      -0.231079        -6.2880 
  77   1.0000      -0.219799        -5.9810 
  78   1.0000      -0.208781        -5.6812 
  79   1.0000      -0.203233        -5.5302 
  80   1.0000      -0.200398        -5.4531 
  81   1.0000      -0.199408        -5.4262 
  82   1.0000      -0.195988        -5.3331 
  83   1.0000      -0.192089        -5.2270 
  84   1.0000      -0.183812        -5.0018 
  85   1.0000      -0.181008        -4.9255 
  86   1.0000      -0.180236        -4.9045 
  87   1.0000      -0.178799        -4.8654 
  88   1.0000      -0.171139        -4.6569 
  89   1.0000      -0.169754        -4.6192 
  90   1.0000      -0.169029        -4.5995 
  91   1.0000      -0.165519        -4.5040 
  92   1.0000      -0.160374        -4.3640 
  93   1.0000      -0.157558        -4.2874 
  94   1.0000      -0.155660        -4.2357 
  95   1.0000      -0.148613        -4.0440 
  96   1.0000      -0.147586        -4.0160 
  97   1.0000      -0.145140        -3.9495 
  98   1.0000      -0.144151        -3.9225 
  99   1.0000      -0.135862        -3.6970 
 100   1.0000      -0.133925        -3.6443 
 101   1.0000      -0.132265        -3.5991 
 102   1.0000      -0.130849        -3.5606 
 103   1.0000      -0.127624        -3.4728 
 104   1.0000      -0.123301        -3.3552 
 105   1.0000      -0.117187        -3.1888 
 106   1.0000      -0.115012        -3.1296 
 107   1.0000      -0.113313        -3.0834 
 108   1.0000      -0.109363        -2.9759 
 109   1.0000      -0.109304        -2.9743 
 110   1.0000      -0.104095        -2.8326 
 111   1.0000      -0.103215        -2.8086 
 112   1.0000      -0.100450        -2.7334 
 113   1.0000      -0.095449        -2.5973 
 114   1.0000      -0.093190        -2.5358 
 115   1.0000      -0.091567        -2.4917 
 116   1.0000      -0.087739        -2.3875 
 117   1.0000      -0.084307        -2.2941 
 118   1.0000      -0.078405        -2.1335 
 119   1.0000      -0.075616        -2.0576 
 120   1.0000      -0.073901        -2.0109 
 121   1.0000      -0.073251        -1.9933 
 122   1.0000      -0.063942        -1.7399 
 123   1.0000      -0.060589        -1.6487 
 124   1.0000      -0.051376        -1.3980 
 125   1.0000      -0.050638        -1.3779 
 126   1.0000      -0.031580        -0.8593 
 127   1.0000      -0.027170        -0.7393 
 128   1.0000      -0.014098        -0.3836 
 129   1.0000       0.001520         0.0414 
 130   1.0000       0.009570         0.2604 
 131   1.0000       0.013271         0.3611 
 132   1.0000       0.019066         0.5188 
 133   1.0000       0.022132         0.6022 
 134   1.0000       0.023436         0.6377 
 135   1.0000       0.024970         0.6795 
 136   1.0000       0.031917         0.8685 
 137   1.0000       0.032922         0.8958 
 138   1.0000       0.037140         1.0106 
 139   1.0000       0.045420         1.2359 
 140   1.0000       0.054875         1.4932 
 141   0.0000       0.142749         3.8844 
 142   0.0000       0.145168         3.9502 
 143   0.0000       0.202944         5.5224 
 144   0.0000       0.212082         5.7710 
 145   0.0000       0.212545         5.7836 
 146   0.0000       0.222922         6.0660 
 147   0.0000       0.228000         6.2042 
 148   0.0000       0.241043         6.5591 
 149   0.0000       0.249975         6.8022 
 150   0.0000       0.255579         6.9547 
 151   0.0000       0.262336         7.1385 
 152   0.0000       0.271110         7.3773 
 153   0.0000       0.277335         7.5467 
 154   0.0000       0.284060         7.7297 
 155   0.0000       0.285724         7.7750 
 156   0.0000       0.287865         7.8332 
 157   0.0000       0.291949         7.9443 
 158   0.0000       0.294414         8.0114 
 159   0.0000       0.298931         8.1343 
 160   0.0000       0.301374         8.2008 
 161   0.0000       0.304558         8.2874 
 162   0.0000       0.309515         8.4223 
 163   0.0000       0.312091         8.4924 
 164   0.0000       0.316992         8.6258 
 165   0.0000       0.319567         8.6959 
 166   0.0000       0.321711         8.7542 
 167   0.0000       0.323708         8.8085 
 168   0.0000       0.326960         8.8970 
 169   0.0000       0.328402         8.9363 
 170   0.0000       0.332070         9.0361 
 171   0.0000       0.337123         9.1736 
 172   0.0000       0.338176         9.2022 
 173   0.0000       0.340995         9.2789 
 174   0.0000       0.344271         9.3681 
 175   0.0000       0.344806         9.3826 
 176   0.0000       0.348981         9.4963 
 177   0.0000       0.350406         9.5350 
 178   0.0000       0.354553         9.6479 
 179   0.0000       0.358732         9.7616 
 180   0.0000       0.361039         9.8244 
 181   0.0000       0.362691         9.8693 
 182   0.0000       0.368334        10.0229 
 183   0.0000       0.371480        10.1085 
 184   0.0000       0.373422        10.1613 
 185   0.0000       0.374478        10.1901 
 186   0.0000       0.384825        10.4716 
 187   0.0000       0.388902        10.5825 
 188   0.0000       0.391102        10.6424 
 189   0.0000       0.393351        10.7036 
 190   0.0000       0.397306        10.8112 
 191   0.0000       0.401172        10.9165 
 192   0.0000       0.406520        11.0620 
 193   0.0000       0.408149        11.1063 
 194   0.0000       0.416045        11.3212 
 195   0.0000       0.419067        11.4034 
 196   0.0000       0.423154        11.5146 
 197   0.0000       0.430150        11.7050 
 198   0.0000       0.432563        11.7706 
 199   0.0000       0.433045        11.7838 
 200   0.0000       0.440252        11.9799 
 201   0.0000       0.446446        12.1484 
 202   0.0000       0.457161        12.4400 
 203   0.0000       0.468165        12.7394 
 204   0.0000       0.478680        13.0256 
 205   0.0000       0.485964        13.2237 
 206   0.0000       0.490591        13.3497 
 207   0.0000       0.504418        13.7259 
 208   0.0000       0.512585        13.9481 
 209   0.0000       0.523062        14.2332 
 210   0.0000       0.538420        14.6511 
 211   0.0000       0.556505        15.1433 
 212   0.0000       0.561571        15.2811 
 213   0.0000       0.568312        15.4646 
 214   0.0000       0.570477        15.5235 
 215   0.0000       0.579910        15.7802 
 216   0.0000       0.582720        15.8566 
 217   0.0000       0.592980        16.1358 
 218   0.0000       0.594925        16.1887 
 219   0.0000       0.600887        16.3510 
 220   0.0000       0.604301        16.4439 
 221   0.0000       0.610118        16.6022 
 222   0.0000       0.615508        16.7488 
 223   0.0000       0.620792        16.8926 
 224   0.0000       0.629223        17.1220 
 225   0.0000       0.632058        17.1992 
 226   0.0000       0.634918        17.2770 
 227   0.0000       0.638353        17.3705 
 228   0.0000       0.641794        17.4641 
 229   0.0000       0.644257        17.5311 
 230   0.0000       0.650981        17.7141 
 231   0.0000       0.656208        17.8563 
 232   0.0000       0.660213        17.9653 
 233   0.0000       0.666754        18.1433 
 234   0.0000       0.671223        18.2649 
 235   0.0000       0.682096        18.5608 
 236   0.0000       0.684471        18.6254 
 237   0.0000       0.689802        18.7705 
 238   0.0000       0.697345        18.9757 
 239   0.0000       0.704124        19.1602 
 240   0.0000       0.712311        19.3830 
 241   0.0000       0.717273        19.5180 
 242   0.0000       0.721061        19.6211 
 243   0.0000       0.729958        19.8632 
 244   0.0000       0.735158        20.0047 
 245   0.0000       0.737945        20.0805 
 246   0.0000       0.743713        20.2375 
 247   0.0000       0.748530        20.3685 
 248   0.0000       0.754723        20.5371 
 249   0.0000       0.759195        20.6587 
 250   0.0000       0.760631        20.6978 
 251   0.0000       0.764788        20.8109 
 252   0.0000       0.766828        20.8664 
 253   0.0000       0.771176        20.9848 
 254   0.0000       0.774738        21.0817 
 255   0.0000       0.779208        21.2033 
 256   0.0000       0.780275        21.2324 
 257   0.0000       0.786363        21.3980 
 258   0.0000       0.787236        21.4218 
 259   0.0000       0.793164        21.5831 
 260   0.0000       0.795324        21.6419 
 261   0.0000       0.797452        21.6998 
 262   0.0000       0.798597        21.7309 
 263   0.0000       0.803401        21.8616 
 264   0.0000       0.805655        21.9230 
 265   0.0000       0.807018        21.9601 
 266   0.0000       0.810598        22.0575 
 267   0.0000       0.812314        22.1042 
 268   0.0000       0.814251        22.1569 
 269   0.0000       0.816293        22.2125 
 270   0.0000       0.818350        22.2684 
 271   0.0000       0.822082        22.3700 
 272   0.0000       0.824602        22.4385 
 273   0.0000       0.828310        22.5395 
 274   0.0000       0.833124        22.6705 
 275   0.0000       0.838055        22.8046 
 276   0.0000       0.839131        22.8339 
 277   0.0000       0.840760        22.8782 
 278   0.0000       0.841864        22.9083 
 279   0.0000       0.842972        22.9384 
 280   0.0000       0.845098        22.9963 
 281   0.0000       0.846270        23.0282 
 282   0.0000       0.848279        23.0828 
 283   0.0000       0.849975        23.1290 
 284   0.0000       0.853518        23.2254 
 285   0.0000       0.856049        23.2943 
 286   0.0000       0.858195        23.3527 
 287   0.0000       0.859301        23.3828 
 288   0.0000       0.864256        23.5176 
 289   0.0000       0.867317        23.6009 
 290   0.0000       0.873938        23.7811 
 291   0.0000       0.874554        23.7978 
 292   0.0000       0.876783        23.8585 
 293   0.0000       0.878897        23.9160 
 294   0.0000       0.884457        24.0673 
 295   0.0000       0.887392        24.1472 
 296   0.0000       0.889790        24.2124 
 297   0.0000       0.895636        24.3715 
 298   0.0000       0.896891        24.4056 
 299   0.0000       0.901376        24.5277 
 300   0.0000       0.904678        24.6175 
 301   0.0000       0.910066        24.7641 
 302   0.0000       0.913209        24.8497 
 303   0.0000       0.919176        25.0121 
 304   0.0000       0.922666        25.1070 
 305   0.0000       0.928728        25.2720 
 306   0.0000       0.935238        25.4491 
 307   0.0000       0.939032        25.5524 
 308   0.0000       0.959492        26.1091 
 309   0.0000       0.963322        26.2133 
 310   0.0000       0.968135        26.3443 
 311   0.0000       0.975604        26.5475 
 312   0.0000       0.983109        26.7518 
 313   0.0000       0.988887        26.9090 
 314   0.0000       0.993775        27.0420 
 315   0.0000       0.997529        27.1442 
 316   0.0000       1.009271        27.4637 
 317   0.0000       1.014616        27.6091 
 318   0.0000       1.023422        27.8487 
 319   0.0000       1.031734        28.0749 
 320   0.0000       1.037971        28.2446 
 321   0.0000       1.044047        28.4100 
 322   0.0000       1.044980        28.4353 
 323   0.0000       1.050422        28.5834 
 324   0.0000       1.058865        28.8132 
 325   0.0000       1.068527        29.0761 
 326   0.0000       1.073964        29.2240 
 327   0.0000       1.077679        29.3251 
 328   0.0000       1.085481        29.5374 
 329   0.0000       1.094726        29.7890 
 330   0.0000       1.105590        30.0846 
 331   0.0000       1.110054        30.2061 
 332   0.0000       1.114970        30.3399 
 333   0.0000       1.130149        30.7529 
 334   0.0000       1.132859        30.8267 
 335   0.0000       1.142295        31.0834 
 336   0.0000       1.159669        31.5562 
 337   0.0000       1.168296        31.7910 
 338   0.0000       1.170408        31.8484 
 339   0.0000       1.171593        31.8807 
 340   0.0000       1.180561        32.1247 
 341   0.0000       1.183559        32.2063 
 342   0.0000       1.200468        32.6664 
 343   0.0000       1.206484        32.8301 
 344   0.0000       1.213018        33.0079 
 345   0.0000       1.222603        33.2687 
 346   0.0000       1.227098        33.3910 
 347   0.0000       1.236448        33.6454 
 348   0.0000       1.245484        33.8913 
 349   0.0000       1.254012        34.1234 
 350   0.0000       1.262152        34.3449 
 351   0.0000       1.266908        34.4743 
 352   0.0000       1.274533        34.6818 
 353   0.0000       1.278901        34.8007 
 354   0.0000       1.283108        34.9151 
 355   0.0000       1.290092        35.1052 
 356   0.0000       1.298062        35.3221 
 357   0.0000       1.311569        35.6896 
 358   0.0000       1.315297        35.7910 
 359   0.0000       1.328635        36.1540 
 360   0.0000       1.330415        36.2024 
 361   0.0000       1.335051        36.3286 
 362   0.0000       1.341866        36.5140 
 363   0.0000       1.353662        36.8350 
 364   0.0000       1.360652        37.0252 
 365   0.0000       1.374866        37.4120 
 366   0.0000       1.382577        37.6218 
 367   0.0000       1.386281        37.7226 
 368   0.0000       1.399578        38.0844 
 369   0.0000       1.405133        38.2356 
 370   0.0000       1.420614        38.6569 
 371   0.0000       1.427600        38.8470 
 372   0.0000       1.439271        39.1646 
 373   0.0000       1.442526        39.2531 
 374   0.0000       1.454184        39.5703 
 375   0.0000       1.468022        39.9469 
 376   0.0000       1.471865        40.0515 
 377   0.0000       1.479420        40.2571 
 378   0.0000       1.482024        40.3279 
 379   0.0000       1.494964        40.6800 
 380   0.0000       1.500441        40.8291 
 381   0.0000       1.506346        40.9897 
 382   0.0000       1.509342        41.0713 
 383   0.0000       1.525836        41.5201 
 384   0.0000       1.531268        41.6679 
 385   0.0000       1.532578        41.7036 
 386   0.0000       1.541621        41.9496 
 387   0.0000       1.547928        42.1213 
 388   0.0000       1.558781        42.4166 
 389   0.0000       1.561722        42.4966 
 390   0.0000       1.569365        42.7046 
 391   0.0000       1.583740        43.0958 
 392   0.0000       1.590386        43.2766 
 393   0.0000       1.605356        43.6840 
 394   0.0000       1.619110        44.0582 
 395   0.0000       1.624764        44.2121 
 396   0.0000       1.631852        44.4049 
 397   0.0000       1.637947        44.5708 
 398   0.0000       1.650023        44.8994 
 399   0.0000       1.669724        45.4355 
 400   0.0000       1.670818        45.4653 
 401   0.0000       1.677249        45.6403 
 402   0.0000       1.679578        45.7036 
 403   0.0000       1.682712        45.7889 
 404   0.0000       1.686404        45.8894 
 405   0.0000       1.688952        45.9587 
 406   0.0000       1.694945        46.1218 
 407   0.0000       1.704060        46.3698 
 408   0.0000       1.707718        46.4694 
 409   0.0000       1.717411        46.7331 
 410   0.0000       1.722484        46.8712 
 411   0.0000       1.726155        46.9711 
 412   0.0000       1.738064        47.2951 
 413   0.0000       1.742236        47.4086 
 414   0.0000       1.753662        47.7196 
 415   0.0000       1.761553        47.9343 
 416   0.0000       1.769646        48.1545 
 417   0.0000       1.777101        48.3574 
 418   0.0000       1.781151        48.4676 
 419   0.0000       1.796846        48.8947 
 420   0.0000       1.808112        49.2012 
 421   0.0000       1.813965        49.3605 
 422   0.0000       1.823628        49.6234 
 423   0.0000       1.826564        49.7033 
 424   0.0000       1.832156        49.8555 
 425   0.0000       1.835317        49.9415 
 426   0.0000       1.840712        50.0883 
 427   0.0000       1.852231        50.4018 
 428   0.0000       1.862474        50.6805 
 429   0.0000       1.866994        50.8035 
 430   0.0000       1.873658        50.9848 
 431   0.0000       1.882680        51.2303 
 432   0.0000       1.886211        51.3264 
 433   0.0000       1.888518        51.3892 
 434   0.0000       1.894685        51.5570 
 435   0.0000       1.896979        51.6194 
 436   0.0000       1.902769        51.7770 
 437   0.0000       1.903890        51.8075 
 438   0.0000       1.906803        51.8868 
 439   0.0000       1.914477        52.0956 
 440   0.0000       1.920321        52.2546 
 441   0.0000       1.922178        52.3051 
 442   0.0000       1.924817        52.3769 
 443   0.0000       1.927420        52.4478 
 444   0.0000       1.930566        52.5334 
 445   0.0000       1.932281        52.5800 
 446   0.0000       1.936019        52.6818 
 447   0.0000       1.941252        52.8242 
 448   0.0000       1.941593        52.8334 
 449   0.0000       1.947827        53.0031 
 450   0.0000       1.949444        53.0471 
 451   0.0000       1.958747        53.3002 
 452   0.0000       1.962181        53.3937 
 453   0.0000       1.963770        53.4369 
 454   0.0000       1.966262        53.5047 
 455   0.0000       1.972610        53.6775 
 456   0.0000       1.976039        53.7708 
 457   0.0000       1.976468        53.7824 
 458   0.0000       1.983138        53.9639 
 459   0.0000       1.986400        54.0527 
 460   0.0000       1.992354        54.2147 
 461   0.0000       2.000978        54.4494 
 462   0.0000       2.002651        54.4949 
 463   0.0000       2.011729        54.7419 
 464   0.0000       2.013897        54.8009 
 465   0.0000       2.014447        54.8159 
 466   0.0000       2.025431        55.1148 
 467   0.0000       2.029235        55.2183 
 468   0.0000       2.033092        55.3232 
 469   0.0000       2.038046        55.4580 
 470   0.0000       2.040528        55.5256 
 471   0.0000       2.050199        55.7888 
 472   0.0000       2.051642        55.8280 
 473   0.0000       2.056192        55.9518 
 474   0.0000       2.059092        56.0307 
 475   0.0000       2.062668        56.1280 
 476   0.0000       2.070015        56.3280 
 477   0.0000       2.080453        56.6120 
 478   0.0000       2.085360        56.7455 
 479   0.0000       2.092731        56.9461 
 480   0.0000       2.097204        57.0678 
 481   0.0000       2.105204        57.2855 
 482   0.0000       2.107485        57.3476 
 483   0.0000       2.109602        57.4052 
 484   0.0000       2.115591        57.5682 
 485   0.0000       2.121674        57.7337 
 486   0.0000       2.122896        57.7669 
 487   0.0000       2.127844        57.9016 
 488   0.0000       2.130949        57.9861 
 489   0.0000       2.137342        58.1600 
 490   0.0000       2.143619        58.3308 
 491   0.0000       2.155476        58.6535 
 492   0.0000       2.156536        58.6823 
 493   0.0000       2.160701        58.7957 
 494   0.0000       2.164924        58.9106 
 495   0.0000       2.172391        59.1138 
 496   0.0000       2.178062        59.2681 
 497   0.0000       2.188495        59.5520 
 498   0.0000       2.197936        59.8089 
 499   0.0000       2.211557        60.1795 
 500   0.0000       2.214454        60.2583 
 501   0.0000       2.224811        60.5402 
 502   0.0000       2.228740        60.6471 
 503   0.0000       2.233108        60.7660 
 504   0.0000       2.242984        61.0347 
 505   0.0000       2.250298        61.2337 
 506   0.0000       2.255663        61.3797 
 507   0.0000       2.267440        61.7002 
 508   0.0000       2.280393        62.0526 
 509   0.0000       2.286925        62.2304 
 510   0.0000       2.291728        62.3611 
 511   0.0000       2.315246        63.0010 
 512   0.0000       2.324991        63.2662 
 513   0.0000       2.326237        63.3001 
 514   0.0000       2.340888        63.6988 
 515   0.0000       2.353969        64.0547 
 516   0.0000       2.363365        64.3104 
 517   0.0000       2.366093        64.3847 
 518   0.0000       2.377096        64.6841 
 519   0.0000       2.388576        64.9965 
 520   0.0000       2.408954        65.5510 
 521   0.0000       2.416455        65.7551 
 522   0.0000       2.427678        66.0605 
 523   0.0000       2.450401        66.6788 
 524   0.0000       2.451145        66.6990 
 525   0.0000       2.459722        66.9325 
 526   0.0000       2.480983        67.5110 
 527   0.0000       2.488988        67.7288 
 528   0.0000       2.496632        67.9368 
 529   0.0000       2.498906        67.9987 
 530   0.0000       2.507281        68.2266 
 531   0.0000       2.520457        68.5851 
 532   0.0000       2.521961        68.6260 
 533   0.0000       2.528125        68.7938 
 534   0.0000       2.540016        69.1174 
 535   0.0000       2.542828        69.1939 
 536   0.0000       2.549471        69.3746 
 537   0.0000       2.552851        69.4666 
 538   0.0000       2.559329        69.6429 
 539   0.0000       2.565935        69.8226 
 540   0.0000       2.570104        69.9361 
 541   0.0000       2.572091        69.9902 
 542   0.0000       2.575832        70.0920 
 543   0.0000       2.583302        70.2952 
 544   0.0000       2.592877        70.5558 
 545   0.0000       2.605105        70.8885 
 546   0.0000       2.630003        71.5660 
 547   0.0000       2.637420        71.7679 
 548   0.0000       2.644794        71.9685 
 549   0.0000       2.649293        72.0909 
 550   0.0000       2.661369        72.4195 
 551   0.0000       2.672920        72.7338 
 552   0.0000       2.674939        72.7888 
 553   0.0000       2.680787        72.9479 
 554   0.0000       2.682564        72.9963 
 555   0.0000       2.686435        73.1016 
 556   0.0000       2.689478        73.1844 
 557   0.0000       2.695919        73.3597 
 558   0.0000       2.701009        73.4982 
 559   0.0000       2.705479        73.6198 
 560   0.0000       2.706891        73.6582 
 561   0.0000       2.720840        74.0378 
 562   0.0000       2.726310        74.1867 
 563   0.0000       2.741183        74.5914 
 564   0.0000       2.759254        75.0831 
 565   0.0000       2.765980        75.2661 
 566   0.0000       2.770149        75.3796 
 567   0.0000       2.772559        75.4452 
 568   0.0000       2.783994        75.7563 
 569   0.0000       2.787944        75.8638 
 570   0.0000       2.791410        75.9581 
 571   0.0000       2.795503        76.0695 
 572   0.0000       2.799299        76.1728 
 573   0.0000       2.801427        76.2307 
 574   0.0000       2.807668        76.4005 
 575   0.0000       2.830592        77.0243 
 576   0.0000       2.832546        77.0775 
 577   0.0000       2.835515        77.1583 
 578   0.0000       2.860183        77.8295 
 579   0.0000       2.863907        77.9309 
 580   0.0000       2.891164        78.6726 
 581   0.0000       2.902467        78.9801 
 582   0.0000       2.903772        79.0157 
 583   0.0000       2.908059        79.1323 
 584   0.0000       2.911846        79.2354 
 585   0.0000       2.915723        79.3409 
 586   0.0000       2.926095        79.6231 
 587   0.0000       2.930990        79.7563 
 588   0.0000       2.949631        80.2635 
 589   0.0000       2.968231        80.7697 
 590   0.0000       2.973161        80.9038 
 591   0.0000       2.979489        81.0760 
 592   0.0000       3.008240        81.8584 
 593   0.0000       3.010428        81.9179 
 594   0.0000       3.014193        82.0204 
 595   0.0000       3.014550        82.0301 
 596   0.0000       3.022655        82.2506 
 597   0.0000       3.039233        82.7017 
 598   0.0000       3.042753        82.7975 
 599   0.0000       3.051478        83.0349 
 600   0.0000       3.054960        83.1297 
 601   0.0000       3.057999        83.2124 
 602   0.0000       3.063707        83.3677 
 603   0.0000       3.065450        83.4151 
 604   0.0000       3.073337        83.6298 
 605   0.0000       3.082488        83.8788 
 606   0.0000       3.088563        84.0441 
 607   0.0000       3.090546        84.0980 
 608   0.0000       3.092683        84.1562 
 609   0.0000       3.096237        84.2529 
 610   0.0000       3.102215        84.4156 
 611   0.0000       3.109217        84.6061 
 612   0.0000       3.121395        84.9375 
 613   0.0000       3.128677        85.1356 
 614   0.0000       3.136612        85.3515 
 615   0.0000       3.139994        85.4436 
 616   0.0000       3.142905        85.5228 
 617   0.0000       3.152716        85.7898 
 618   0.0000       3.156481        85.8922 
 619   0.0000       3.160133        85.9916 
 620   0.0000       3.171252        86.2942 
 621   0.0000       3.200477        87.0894 
 622   0.0000       3.202205        87.1364 
 623   0.0000       3.215264        87.4918 
 624   0.0000       3.219713        87.6128 
 625   0.0000       3.237242        88.0898 
 626   0.0000       3.238961        88.1366 
 627   0.0000       3.262026        88.7642 
 628   0.0000       3.268040        88.9279 
 629   0.0000       3.275768        89.1382 
 630   0.0000       3.281346        89.2900 
 631   0.0000       3.289872        89.5220 
 632   0.0000       3.299927        89.7956 
 633   0.0000       3.323828        90.4459 
 634   0.0000       3.341402        90.9242 
 635   0.0000       3.355282        91.3019 
 636   0.0000       3.489058        94.9421 
 637   0.0000       3.540650        96.3460 
 638   0.0000       3.573050        97.2276 
 639   0.0000       3.614220        98.3479 
 640   0.0000       3.642139        99.1077 
 641   0.0000       3.728499       101.4576 
 642   0.0000       3.770621       102.6038 
 643   0.0000       3.772648       102.6590 
 644   0.0000       3.795254       103.2741 
 645   0.0000       3.801061       103.4321 
 646   0.0000       4.191217       114.0488 
 647   0.0000       4.208534       114.5200 
 648   0.0000       4.210128       114.5634 
 649   0.0000       4.219735       114.8248 
 650   0.0000       4.233709       115.2051 
 651   0.0000       4.331712       117.8719 
 652   0.0000       4.354881       118.5023 

                 SPIN DOWN ORBITALS
  NO   OCC          E(Eh)            E(eV) 
   0   1.0000    -254.599528     -6928.0054 
   1   1.0000    -100.388107     -2731.6993 
   2   1.0000     -29.333742      -798.2117 
   3   1.0000     -25.293153      -688.2617 
   4   1.0000     -25.290203      -688.1814 
   5   1.0000     -25.289121      -688.1520 
   6   1.0000     -18.562121      -505.1010 
   7   1.0000     -18.514598      -503.8078 
   8   1.0000     -18.513307      -503.7727 
   9   1.0000     -18.512287      -503.7449 
  10   1.0000     -18.510616      -503.6995 
  11   1.0000     -13.787567      -375.1788 
  12   1.0000     -13.787213      -375.1692 
  13   1.0000     -13.782490      -375.0406 
  14   1.0000     -13.781462      -375.0126 
  15   1.0000      -9.785772      -266.2844 
  16   1.0000      -9.764660      -265.7099 
  17   1.0000      -9.763126      -265.6682 
  18   1.0000      -9.761792      -265.6319 
  19   1.0000      -9.761285      -265.6181 
  20   1.0000      -9.750172      -265.3157 
  21   1.0000      -9.748735      -265.2766 
  22   1.0000      -9.732947      -264.8470 
  23   1.0000      -9.731086      -264.7963 
  24   1.0000      -9.710517      -264.2366 
  25   1.0000      -9.708914      -264.1930 
  26   1.0000      -9.707599      -264.1572 
  27   1.0000      -9.706084      -264.1160 
  28   1.0000      -9.699018      -263.9237 
  29   1.0000      -9.698179      -263.9009 
  30   1.0000      -9.697234      -263.8751 
  31   1.0000      -9.692730      -263.7526 
  32   1.0000      -9.692586      -263.7487 
  33   1.0000      -9.689371      -263.6612 
  34   1.0000      -9.687987      -263.6235 
  35   1.0000      -9.685993      -263.5693 
  36   1.0000      -9.684208      -263.5207 
  37   1.0000      -8.869073      -241.3397 
  38   1.0000      -6.694578      -182.1687 
  39   1.0000      -6.692166      -182.1031 
  40   1.0000      -6.691373      -182.0815 
  41   1.0000      -2.997585       -81.5684 
  42   1.0000      -1.821392       -49.5626 
  43   1.0000      -1.816324       -49.4247 
  44   1.0000      -1.803443       -49.0742 
  45   1.0000      -0.734817       -19.9954 
  46   1.0000      -0.698212       -18.9993 
  47   1.0000      -0.695632       -18.9291 
  48   1.0000      -0.692576       -18.8459 
  49   1.0000      -0.688355       -18.7311 
  50   1.0000      -0.591865       -16.1055 
  51   1.0000      -0.582076       -15.8391 
  52   1.0000      -0.575354       -15.6562 
  53   1.0000      -0.567473       -15.4417 
  54   1.0000      -0.522482       -14.2175 
  55   1.0000      -0.490932       -13.3589 
  56   1.0000      -0.483142       -13.1470 
  57   1.0000      -0.473776       -12.8921 
  58   1.0000      -0.467484       -12.7209 
  59   1.0000      -0.465492       -12.6667 
  60   1.0000      -0.416912       -11.3447 
  61   1.0000      -0.416465       -11.3326 
  62   1.0000      -0.413646       -11.2559 
  63   1.0000      -0.406908       -11.0725 
  64   1.0000      -0.405016       -11.0210 
  65   1.0000      -0.402159       -10.9433 
  66   1.0000      -0.383642       -10.4394 
  67   1.0000      -0.355301        -9.6682 
  68   1.0000      -0.349927        -9.5220 
  69   1.0000      -0.338518        -9.2115 
  70   1.0000      -0.316041        -8.5999 
  71   1.0000      -0.312305        -8.4983 
  72   1.0000      -0.279241        -7.5985 
  73   1.0000      -0.258799        -7.0423 
  74   1.0000      -0.240562        -6.5460 
  75   1.0000      -0.232828        -6.3356 
  76   1.0000      -0.230505        -6.2724 
  77   1.0000      -0.219218        -5.9652 
  78   1.0000      -0.207688        -5.6515 
  79   1.0000      -0.201890        -5.4937 
  80   1.0000      -0.200049        -5.4436 
  81   1.0000      -0.198862        -5.4113 
  82   1.0000      -0.195633        -5.3234 
  83   1.0000      -0.191632        -5.2146 
  84   1.0000      -0.182980        -4.9791 
  85   1.0000      -0.179960        -4.8970 
  86   1.0000      -0.179250        -4.8776 
  87   1.0000      -0.178058        -4.8452 
  88   1.0000      -0.170377        -4.6362 
  89   1.0000      -0.168995        -4.5986 
  90   1.0000      -0.168249        -4.5783 
  91   1.0000      -0.164978        -4.4893 
  92   1.0000      -0.159953        -4.3525 
  93   1.0000      -0.156881        -4.2689 
  94   1.0000      -0.154079        -4.1927 
  95   1.0000      -0.147417        -4.0114 
  96   1.0000      -0.147100        -4.0028 
  97   1.0000      -0.144565        -3.9338 
  98   1.0000      -0.143598        -3.9075 
  99   1.0000      -0.135475        -3.6865 
 100   1.0000      -0.133663        -3.6371 
 101   1.0000      -0.131753        -3.5852 
 102   1.0000      -0.130079        -3.5396 
 103   1.0000      -0.127153        -3.4600 
 104   1.0000      -0.122815        -3.3420 
 105   1.0000      -0.116498        -3.1701 
 106   1.0000      -0.113682        -3.0934 
 107   1.0000      -0.111967        -3.0468 
 108   1.0000      -0.108756        -2.9594 
 109   1.0000      -0.107899        -2.9361 
 110   1.0000      -0.103078        -2.8049 
 111   1.0000      -0.101969        -2.7747 
 112   1.0000      -0.099648        -2.7116 
 113   1.0000      -0.094986        -2.5847 
 114   1.0000      -0.092448        -2.5156 
 115   1.0000      -0.090734        -2.4690 
 116   1.0000      -0.085556        -2.3281 
 117   1.0000      -0.082482        -2.2445 
 118   1.0000      -0.075588        -2.0569 
 119   1.0000      -0.072630        -1.9764 
 120   1.0000      -0.071101        -1.9347 
 121   1.0000      -0.065109        -1.7717 
 122   1.0000      -0.062487        -1.7004 
 123   1.0000      -0.052237        -1.4214 
 124   1.0000      -0.038466        -1.0467 
 125   1.0000      -0.022848        -0.6217 
 126   1.0000      -0.005395        -0.1468 
 127   1.0000      -0.002335        -0.0635 
 128   1.0000       0.002545         0.0693 
 129   1.0000       0.003678         0.1001 
 130   1.0000       0.014451         0.3932 
 131   1.0000       0.018307         0.4981 
 132   1.0000       0.023713         0.6453 
 133   1.0000       0.027058         0.7363 
 134   1.0000       0.027949         0.7605 
 135   1.0000       0.029327         0.7980 
 136   1.0000       0.037885         1.0309 
 137   1.0000       0.073235         1.9928 
 138   0.0000       0.112574         3.0633 
 139   0.0000       0.114276         3.1096 
 140   0.0000       0.121030         3.2934 
 141   0.0000       0.145577         3.9613 
 142   0.0000       0.192332         5.2336 
 143   0.0000       0.208417         5.6713 
 144   0.0000       0.214715         5.8427 
 145   0.0000       0.215724         5.8702 
 146   0.0000       0.224897         6.1198 
 147   0.0000       0.230966         6.2849 
 148   0.0000       0.241833         6.5806 
 149   0.0000       0.250268         6.8101 
 150   0.0000       0.256190         6.9713 
 151   0.0000       0.262551         7.1444 
 152   0.0000       0.271293         7.3823 
 153   0.0000       0.277683         7.5561 
 154   0.0000       0.284592         7.7442 
 155   0.0000       0.285900         7.7797 
[...]
      py      :     0.000709
      dz2     :    -0.000042  d :    -0.000019
      dxz     :     0.000001
      dyz     :     0.000007
      dx2y2   :    -0.000006
      dxy     :     0.000020
 28 C s       :     0.000193  s :     0.000193
      pz      :     0.001368  p :     0.001668
      px      :     0.000205
      py      :     0.000096
      dz2     :    -0.000006  d :    -0.000044
      dxz     :     0.000002
      dyz     :    -0.000050
      dx2y2   :     0.000005
      dxy     :     0.000006
 29 C s       :     0.000167  s :     0.000167
      pz      :     0.001325  p :     0.001111
      px      :    -0.000260
      py      :     0.000046
      dz2     :    -0.000006  d :    -0.000003
      dxz     :     0.000005
      dyz     :    -0.000018
      dx2y2   :     0.000004
      dxy     :     0.000012
 30 C s       :    -0.000009  s :    -0.000009
      pz      :     0.000025  p :     0.000052
      px      :     0.000027
      py      :    -0.000000
      dz2     :     0.000020  d :     0.000021
      dxz     :    -0.000000
      dyz     :     0.000010
      dx2y2   :    -0.000003
      dxy     :    -0.000006
 31 C s       :     0.000029  s :     0.000029
      pz      :    -0.000003  p :    -0.000087
      px      :     0.000042
      py      :    -0.000126
      dz2     :     0.000014  d :    -0.000000
      dxz     :     0.000001
      dyz     :    -0.000003
      dx2y2   :    -0.000002
      dxy     :    -0.000010
 32 C s       :     0.000065  s :     0.000065
      pz      :     0.000005  p :     0.000162
      px      :     0.000019
      py      :     0.000138
      dz2     :    -0.000002  d :    -0.000003
      dxz     :     0.000000
      dyz     :    -0.000000
      dx2y2   :    -0.000000
      dxy     :    -0.000001
 33 H s       :     0.000017  s :     0.000017
      pz      :     0.000021  p :     0.000044
      px      :     0.000002
      py      :     0.000021
 34 H s       :    -0.000049  s :    -0.000049
      pz      :     0.000043  p :     0.000045
      px      :     0.000005
      py      :    -0.000002
 35 H s       :    -0.000233  s :    -0.000233
      pz      :     0.000020  p :     0.000059
      px      :     0.000027
      py      :     0.000011
 36 H s       :    -0.000045  s :    -0.000045
      pz      :     0.000003  p :     0.000065
      px      :     0.000022
      py      :     0.000040
 37 H s       :     0.000021  s :     0.000021
      pz      :    -0.000005  p :     0.000063
      px      :     0.000023
      py      :     0.000045
 38 H s       :    -0.000106  s :    -0.000106
      pz      :     0.000056  p :     0.000056
      px      :     0.000007
      py      :    -0.000007
 39 H s       :     0.000284  s :     0.000284
      pz      :     0.000039  p :     0.000055
      px      :     0.000012
      py      :     0.000004
 40 H s       :     0.000061  s :     0.000061
      pz      :    -0.000002  p :     0.000007
      px      :    -0.000006
      py      :     0.000015
 41 H s       :    -0.000265  s :    -0.000265
      pz      :     0.000012  p :     0.000028
      px      :     0.000007
      py      :     0.000008
 42 H s       :    -0.000021  s :    -0.000021
      pz      :    -0.000016  p :     0.000007
      px      :     0.000026
      py      :    -0.000002
 43 H s       :     0.000437  s :     0.000437
      pz      :     0.000005  p :     0.000080
      px      :     0.000055
      py      :     0.000020
 44 H s       :     0.000162  s :     0.000162
      pz      :     0.000041  p :     0.000047
      px      :    -0.000006
      py      :     0.000012
 45 H s       :     0.000853  s :     0.000853
      pz      :     0.000017  p :     0.000102
      px      :     0.000017
      py      :     0.000067
 46 H s       :     0.000006  s :     0.000006
      pz      :     0.000003  p :     0.000003
      px      :     0.000008
      py      :    -0.000008
 47 H s       :     0.000115  s :     0.000115
      pz      :     0.000090  p :     0.000091
      px      :     0.000022
      py      :    -0.000021
 48 H s       :     0.000032  s :     0.000032
      pz      :    -0.000017  p :    -0.000067
      px      :    -0.000042
      py      :    -0.000009
 49 H s       :     0.000241  s :     0.000241
      pz      :    -0.000017  p :    -0.000014
      px      :     0.000010
      py      :    -0.000008
 50 H s       :     0.000085  s :     0.000085
      pz      :    -0.000000  p :    -0.000006
      px      :     0.000000
      py      :    -0.000006
 51 H s       :     0.000011  s :     0.000011
      pz      :     0.000010  p :     0.000048
      px      :     0.000016
      py      :     0.000022
 52 H s       :    -0.000108  s :    -0.000108
      pz      :     0.000042  p :     0.000050
      px      :     0.000018
      py      :    -0.000010
 53 H s       :     0.000081  s :     0.000081
      pz      :    -0.000017  p :     0.000039
      px      :     0.000016
      py      :     0.000040
 54 H s       :    -0.000053  s :    -0.000053
      pz      :     0.000039  p :     0.000044
      px      :     0.000007
      py      :    -0.000002
 55 H s       :    -0.000043  s :    -0.000043
      pz      :     0.000051  p :     0.000063
      px      :     0.000002
      py      :     0.000009
 56 H s       :    -0.000284  s :    -0.000284
      pz      :     0.000031  p :     0.000061
      px      :     0.000020
      py      :     0.000010
 57 H s       :    -0.000938  s :    -0.000938
      pz      :     0.000118  p :    -0.000136
      px      :    -0.000252
      py      :    -0.000002
 58 H s       :    -0.000015  s :    -0.000015
      pz      :     0.000037  p :     0.000009
      px      :    -0.000023
      py      :    -0.000005
 59 H s       :     0.000077  s :     0.000077
      pz      :    -0.000003  p :     0.000003
      px      :     0.000001
      py      :     0.000004
 60 H s       :    -0.000032  s :    -0.000032
      pz      :    -0.000005  p :    -0.000002
      px      :     0.000004
      py      :    -0.000002
 61 H s       :     0.000037  s :     0.000037
      pz      :     0.000001  p :    -0.000007
      px      :    -0.000003
      py      :    -0.000005
 62 H s       :    -0.000064  s :    -0.000064
      pz      :    -0.000004  p :    -0.000002
      px      :     0.000000
      py      :     0.000001
 63 H s       :    -0.000060  s :    -0.000060
      pz      :    -0.000001  p :    -0.000002
      px      :     0.000002
      py      :    -0.000003
 64 H s       :     0.000003  s :     0.000003
      pz      :    -0.000000  p :     0.000008
      px      :     0.000002
      py      :     0.000005
 65 H s       :     0.000173  s :     0.000173
      pz      :     0.000005  p :     0.000044
      px      :     0.000007
      py      :     0.000032
 66 H s       :     0.000126  s :     0.000126
      pz      :    -0.000001  p :     0.000020
      px      :    -0.000001
      py      :     0.000022


                      *****************************
                      * MAYER POPULATION ANALYSIS *
                      *****************************

  NA   - Mulliken gross atomic population
  ZA   - Total nuclear charge
  QA   - Mulliken gross atomic charge
  VA   - Mayer's total valence
  BVA  - Mayer's bonded valence
  FA   - Mayer's free valence

  ATOM       NA         ZA         QA         VA         BVA        FA
  0 Fe    25.4307    26.0000     0.5693     6.1000     4.0850     2.0150
  1 Cl    17.4485    17.0000    -0.4485     0.9982     0.9825     0.0157
  2 N      7.2757     7.0000    -0.2757     3.1700     3.1677     0.0022
  3 N      7.2796     7.0000    -0.2796     3.1661     3.1645     0.0016
  4 N      7.2823     7.0000    -0.2823     3.1653     3.1637     0.0016
  5 N      7.2827     7.0000    -0.2827     3.1545     3.1525     0.0020
  6 O      8.3200     8.0000    -0.3200     2.2270     2.2264     0.0007
  7 O      8.2238     8.0000    -0.2238     2.2904     2.2904     0.0000
  8 O      8.3209     8.0000    -0.3209     2.2283     2.2277     0.0006
  9 O      8.3033     8.0000    -0.3033     2.2344     2.2331     0.0012
 10 O      8.3055     8.0000    -0.3055     2.2377     2.2365     0.0012
 11 C      6.0930     6.0000    -0.0930     4.1594     4.1594     0.0000
 12 C      5.8792     6.0000     0.1208     4.1386     4.1385     0.0001
 13 C      6.1309     6.0000    -0.1309     4.1778     4.1778     0.0000
 14 C      5.9192     6.0000     0.0808     3.9991     3.9991     0.0000
 15 C      6.1318     6.0000    -0.1318     4.1625     4.1625     0.0000
 16 C      5.8838     6.0000     0.1162     4.1545     4.1543     0.0001
 17 C      6.0849     6.0000    -0.0849     4.1396     4.1396     0.0000
 18 C      5.8643     6.0000     0.1357     4.1563     4.1560     0.0003
 19 C      6.2504     6.0000    -0.2504     3.8805     3.8805     0.0000
 20 C      5.8686     6.0000     0.1314     4.1923     4.1920     0.0003
 21 C      5.9338     6.0000     0.0662     3.9031     3.9031     0.0000
 22 C      5.9244     6.0000     0.0756     3.8863     3.8863     0.0000
 23 C      5.9471     6.0000     0.0529     3.9123     3.9123     0.0000
 24 C      5.9006     6.0000     0.0994     3.9082     3.9082     0.0000
 25 C      5.9106     6.0000     0.0894     3.8962     3.8962     0.0000
 26 C      5.9061     6.0000     0.0939     3.8994     3.8993     0.0000
 27 C      5.9560     6.0000     0.0440     3.9021     3.9021     0.0000
 28 C      5.9359     6.0000     0.0641     3.8878     3.8878     0.0000
 29 C      5.9616     6.0000     0.0384     4.0567     4.0567     0.0000
 30 C      6.0087     6.0000    -0.0087     3.9996     3.9996     0.0000
 31 C      5.9068     6.0000     0.0932     4.0995     4.0995     0.0000
 32 C      6.0152     6.0000    -0.0152     3.9867     3.9867     0.0000
 33 H      1.0158     1.0000    -0.0158     1.0249     1.0249     0.0000
 34 H      0.9939     1.0000     0.0061     1.0311     1.0311     0.0000
 35 H      1.0069     1.0000    -0.0069     1.0013     1.0013     0.0000
 36 H      0.9976     1.0000     0.0024     1.0462     1.0462     0.0000
 37 H      1.0204     1.0000    -0.0204     1.0260     1.0260     0.0000
 38 H      0.9954     1.0000     0.0046     1.0119     1.0119     0.0000
 39 H      1.0214     1.0000    -0.0214     0.9969     0.9969     0.0000
 40 H      0.9809     1.0000     0.0191     1.0349     1.0349     0.0000
 41 H      0.9735     1.0000     0.0265     1.0117     1.0117     0.0000
 42 H      0.9941     1.0000     0.0059     1.0520     1.0520     0.0000
 43 H      1.0230     1.0000    -0.0230     1.0179     1.0179     0.0000
 44 H      0.9945     1.0000     0.0055     1.0141     1.0141     0.0000
 45 H      1.0273     1.0000    -0.0273     1.0196     1.0196     0.0000
 46 H      0.9953     1.0000     0.0047     1.0336     1.0336     0.0000
 47 H      0.9954     1.0000     0.0046     1.0697     1.0697     0.0000
 48 H      0.9799     1.0000     0.0201     1.0490     1.0490     0.0000
 49 H      1.0203     1.0000    -0.0203     1.0053     1.0053     0.0000
 50 H      1.0118     1.0000    -0.0118     1.0115     1.0115     0.0000
 51 H      0.9914     1.0000     0.0086     1.0375     1.0375     0.0000
 52 H      0.9838     1.0000     0.0162     1.0106     1.0106     0.0000
 53 H      1.0157     1.0000    -0.0157     1.0260     1.0260     0.0000
 54 H      0.9902     1.0000     0.0098     1.0434     1.0434     0.0000
 55 H      1.0170     1.0000    -0.0170     1.0209     1.0209     0.0000
 56 H      1.0047     1.0000    -0.0047     1.0015     1.0015     0.0000
 57 H      0.9808     1.0000     0.0192     1.0971     1.0971     0.0000
 58 H      1.0245     1.0000    -0.0245     0.9917     0.9917     0.0000
 59 H      1.0101     1.0000    -0.0101     0.9810     0.9810     0.0000
 60 H      0.9742     1.0000     0.0258     1.0075     1.0075     0.0000
 61 H      1.0068     1.0000    -0.0068     0.9901     0.9901     0.0000
 62 H      1.0322     1.0000    -0.0322     1.0125     1.0125     0.0000
 63 H      1.0230     1.0000    -0.0230     1.0141     1.0141     0.0000
 64 H      1.0407     1.0000    -0.0407     0.9770     0.9770     0.0000
 65 H      0.9826     1.0000     0.0174     1.0273     1.0273     0.0000
 66 H      0.9892     1.0000     0.0108     1.0181     1.0181     0.0000

  Mayer bond orders larger than 0.1
B(  0-Fe,  1-Cl) :   0.6579 B(  0-Fe,  2-N ) :   0.7407 B(  0-Fe,  3-N ) :   0.7197 
B(  0-Fe,  4-N ) :   0.7123 B(  0-Fe,  5-N ) :   0.7403 B(  1-Cl, 57-H ) :   0.1332 
B(  2-N , 11-C ) :   0.9578 B(  2-N , 20-C ) :   1.3260 B(  3-N , 12-C ) :   1.3063 
B(  3-N , 13-C ) :   0.9722 B(  4-N , 15-C ) :   0.9727 B(  4-N , 16-C ) :   1.3090 
B(  5-N , 17-C ) :   0.9560 B(  5-N , 18-C ) :   1.3142 B(  6-O , 12-C ) :   1.8179 
B(  7-O , 14-C ) :   2.0924 B(  8-O , 16-C ) :   1.8254 B(  9-O , 18-C ) :   1.8279 
B( 10-O , 20-C ) :   1.8354 B( 11-C , 12-C ) :   0.8907 B( 11-C , 21-C ) :   1.0528 
B( 11-C , 22-C ) :   1.0473 B( 13-C , 14-C ) :   0.8842 B( 13-C , 23-C ) :   1.0411 
B( 13-C , 24-C ) :   1.0730 B( 14-C , 15-C ) :   0.8987 B( 15-C , 25-C ) :   1.0574 
B( 15-C , 26-C ) :   1.0326 B( 16-C , 17-C ) :   0.8898 B( 17-C , 27-C ) :   1.0486 
B( 17-C , 28-C ) :   1.0435 B( 18-C , 19-C ) :   0.8767 B( 19-C , 20-C ) :   0.8797 
B( 19-C , 29-C ) :   1.0297 B( 19-C , 31-C ) :   1.0589 B( 21-C , 33-H ) :   0.9414 
B( 21-C , 34-H ) :   0.9449 B( 21-C , 35-H ) :   0.9497 B( 22-C , 36-H ) :   0.9390 
B( 22-C , 37-H ) :   0.9397 B( 22-C , 38-H ) :   0.9475 B( 23-C , 39-H ) :   0.9409 
B( 23-C , 40-H ) :   0.9336 B( 23-C , 41-H ) :   0.9435 B( 24-C , 42-H ) :   0.9273 
B( 24-C , 43-H ) :   0.9311 B( 24-C , 44-H ) :   0.9480 B( 25-C , 45-H ) :   0.9381 
B( 25-C , 46-H ) :   0.9348 B( 25-C , 47-H ) :   0.9343 B( 26-C , 48-H ) :   0.9316 
B( 26-C , 49-H ) :   0.9383 B( 26-C , 50-H ) :   0.9418 B( 27-C , 51-H ) :   0.9424 
B( 27-C , 52-H ) :   0.9511 B( 27-C , 53-H ) :   0.9397 B( 28-C , 54-H ) :   0.9423 
B( 28-C , 55-H ) :   0.9425 B( 28-C , 56-H ) :   0.9493 B( 29-C , 30-C ) :   1.1194 
B( 29-C , 57-H ) :   0.8934 B( 29-C , 58-H ) :   0.9197 B( 30-C , 59-H ) :   0.9525 
B( 30-C , 60-H ) :   0.9532 B( 30-C , 61-H ) :   0.9530 B( 31-C , 32-C ) :   1.1166 
B( 31-C , 62-H ) :   0.9097 B( 31-C , 63-H ) :   0.9051 B( 32-C , 64-H ) :   0.9525 
B( 32-C , 65-H ) :   0.9530 B( 32-C , 66-H ) :   0.9553 

-------
TIMINGS
-------

Total SCF time: 0 days 0 hours 3 min 33 sec 

Total time                  ....     213.476 sec
Sum of individual times     ....     212.292 sec  ( 99.4%)

Fock matrix formation       ....     188.863 sec  ( 88.5%)
  Split-RI-J                ....     124.094 sec  ( 65.7% of F)
  XC integration            ....      64.304 sec  ( 34.0% of F)
    Basis function eval.    ....      13.236 sec  ( 20.6% of XC)
    Density eval.           ....      22.302 sec  ( 34.7% of XC)
    XC-Functional eval.     ....       1.772 sec  (  2.8% of XC)
    XC-Potential eval.      ....      26.170 sec  ( 40.7% of XC)
Diagonalization             ....       3.956 sec  (  1.9%)
Density matrix formation    ....       0.768 sec  (  0.4%)
Population analysis         ....       0.181 sec  (  0.1%)
Initial guess               ....       5.179 sec  (  2.4%)
Orbital Transformation      ....       0.000 sec  (  0.0%)
Orbital Orthonormalization  ....       0.000 sec  (  0.0%)
DIIS solution               ....       1.551 sec  (  0.7%)
Grid generation             ....      11.794 sec  (  5.5%)

-------------------------   --------------------
FINAL SINGLE POINT ENERGY     -3177.032375374714
-------------------------   --------------------


                            ***************************************
                            *     ORCA property calculations      *
                            ***************************************

                                    ---------------------
                                    Active property flags
                                    ---------------------
   (+) Dipole Moment
   (+) Nuclear properties (Hyperfine,Quadrupole)


------------------------------------------------------------------------------
                       ORCA ELECTRIC PROPERTIES CALCULATION
------------------------------------------------------------------------------

Dipole Moment Calculation                       ... on
Quadrupole Moment Calculation                   ... off
Polarizability Calculation                      ... off
GBWName                                         ... moess.gbw
Electron density file                           ... moess.scfp.tmp
The origin for moment calculation is the CENTER OF MASS  = ( 0.006667, -0.026680  0.099324)

-------------
DIPOLE MOMENT
-------------
                                X             Y             Z
Electronic contribution:    -11.82334      -2.25136      10.00846
Nuclear contribution   :     11.66355       2.46309     -10.64707
                        -----------------------------------------
Total Dipole Moment    :     -0.15979       0.21173      -0.63861
                        -----------------------------------------
Magnitude (a.u.)       :      0.69151
Magnitude (Debye)      :      1.75768



--------------------
Rotational spectrum 
--------------------
 
Rotational constants in cm-1:     0.005773     0.004083     0.003066 
Rotational constants in MHz :   173.056861   122.413319    91.914888 

 Dipole components along the rotational axes: 
x,y,z [a.u.] :    -0.160086     0.221614    -0.635172 
x,y,z [Debye]:    -0.406905     0.563297    -1.614480 

 
------------------------------------------------------------------------------
                                ORCA EPR/NMR CALCULATION
------------------------------------------------------------------------------

GBWName                      ... moess.gbw
Electron density file        ... moess.scfp.tmp
Spin density file            ... moess.scfr.tmp
Multiplicity                 ... 4
g-tensor                     ... 0
NMR chemical shifts          ... 0
Number of nuclei for epr/nmr ... 1
   Nucleus:   0Fe
       Hyperfine : Isotope=   57 I=   0.500 P=  17.280
       Quadrupole: Isotope=   57 I=   0.500 Q=   0.160
       Spin-Orbit: Zeff=  13.910
       Ncuelar Spin-Spin: Gn=   0.000
       rho(0)=Y f(grad)=Y a(iso)=N a(dip)=N a(orb)=N sigma(nmr)=N spin-spin(nmr)=all-N,DSO-N,PSO-N,FC-N,SD-N

-----------------------------------------
ELECTRIC AND MAGNETIC HYPERFINE STRUCTURE
-----------------------------------------

 -----------------------------------------------------------
 Nucleus   0Fe: A:ISTP=   57 I=  0.5 P= 17.2798 MHz/au**3
                Q:ISTP=   57 I=  0.5 Q=  0.1600 barn     
 -----------------------------------------------------------
 Raw EFG matrix (all values in a.u.**-3):
            -0.9102      -0.0039      -0.0277
            -0.0039      -0.5674       0.1500
            -0.0277       0.1500       1.4776

 V(El)      -0.9080      -1.2216       2.1296
 V(Nuc)      0.3296       0.3111      -0.6407
         ----------   ----------   ----------
 V(Tot)     -0.5784      -0.9105       1.4889 
 Orientation: 
  X      -0.0057963    0.9999157    0.0116182
  Y       0.9973267    0.0066268   -0.0727703
  Z      -0.0728411    0.0111654   -0.9972811

Note: Tensor is right-handed

Moessbauer quadrupole splitting parameter (proper coordinate system)
 e**2qQ  =   55.974 MHz =    4.825 mm/s
 eta     =  0.223
 Delta-EQ=(1/2{e**2qQ}*sqrt(1+1/3*eta**2) =   28.218 MHz =    2.433 mm/s
 RHO(0)=  11190.769687904 a.u.**-3


------------------------------------------------------------------------------- 

Timings for individual modules:

Sum of individual times         ...      214.812 sec (=   3.580 min)
GTO integral calculation        ...        0.800 sec (=   0.013 min)   0.4 %
SCF iterations                  ...      213.505 sec (=   3.558 min)  99.4 %
EPR/NMR calculation             ...        0.507 sec (=   0.008 min)   0.2 %
                             ****ORCA TERMINATED NORMALLY****
TOTAL RUN TIME: 0 days 0 hours 3 minutes 35 seconds 116 msec
