
                                 *****************
                                 * O   R   C   A *
                                 *****************

           --- An Ab Initio, DFT and Semiempirical electronic structure package ---

                  #######################################################
                  #                        -***-                        #
                  #          Department of theory and spectroscopy      #
                  #               Directorship: Frank Neese             #
                  #        Max Planck Institute fuer Kohlenforschung    #
                  #                Kaiser Wilhelm Platz 1               #
                  #                 D-45470 Muelheim/Ruhr               #
                  #                      Germany                        #
                  #                                                     #
                  #                  All rights reserved                #
                  #                        -***-                        #
                  #######################################################


                         Program Version 4.1.2  - RELEASE  -


 With contributions from (in alphabetic order):
   Daniel Aravena         : Magnetic Properties
   Michael Atanasov       : Ab Initio Ligand Field Theory
   Alexander A. Auer      : GIAO ZORA
   Ute Becker             : Parallelization
   Giovanni Bistoni       : ED, Open-shell LED
   Martin Brehm           : Molecular dynamics
   Dmytro Bykov           : SCF Hessian
   Vijay G. Chilkuri      : MRCI spin determinant printing
   Dipayan Datta          : RHF DLPNO-CCSD density
   Achintya Kumar Dutta   : EOM-CC, STEOM-CC
   Dmitry Ganyushin       : Spin-Orbit,Spin-Spin,Magnetic field MRCI
   Miquel Garcia          : C-PCM Hessian
   Yang Guo               : DLPNO-NEVPT2, CIM, IAO-localization
   Andreas Hansen         : Spin unrestricted coupled pair/coupled cluster methods
   Benjamin Helmich-Paris : CASSCF linear response (MC-RPA)
   Lee Huntington         : MR-EOM, pCC
   Robert Izsak           : Overlap fitted RIJCOSX, COSX-SCS-MP3, EOM
   Christian Kollmar      : KDIIS, OOCD, Brueckner-CCSD(T), CCSD density
   Simone Kossmann        : Meta GGA functionals, TD-DFT gradient, OOMP2, MP2 Hessian
   Martin Krupicka        : AUTO-CI
   Lucas Lang             : DCDCAS
   Dagmar Lenk            : GEPOL surface, SMD
   Dimitrios Liakos       : Extrapolation schemes; parallel MDCI
   Dimitrios Manganas     : ROCIS; embedding schemes
   Dimitrios Pantazis     : SARC Basis sets
   Taras Petrenko         : DFT Hessian,TD-DFT gradient, ASA, ECA, R-Raman, ABS, FL, XAS/XES, NRVS
   Peter Pinski           : DLPNO-MP2, DLPNO-MP2 Gradient
   Christoph Reimann      : Effective Core Potentials
   Marius Retegan         : Local ZFS, SOC
   Christoph Riplinger    : Optimizer, TS searches, QM/MM, DLPNO-CCSD(T), (RO)-DLPNO pert. Triples
   Tobias Risthaus        : Range-separated hybrids, TD-DFT gradient, RPA, STAB
   Michael Roemelt        : Restricted open shell CIS
   Masaaki Saitow         : Open-shell DLPNO
   Barbara Sandhoefer     : DKH picture change effects
   Avijit Sen             : IP-ROCIS
   Kantharuban Sivalingam : CASSCF convergence, NEVPT2, FIC-MRCI
   Bernardo de Souza      : ESD, SOC TD-DFT
   Georgi Stoychev        : AutoAux, RI-MP2 NMR
   Willem Van den Heuvel  : Paramagnetic NMR
   Boris Wezisla          : Elementary symmetry handling
   Frank Wennmohs         : Technical directorship


 We gratefully acknowledge several colleagues who have allowed us to
 interface, adapt or use parts of their codes:
   Stefan Grimme, W. Hujo, H. Kruse,             : VdW corrections, initial TS optimization,
                  C. Bannwarth                     DFT functionals, gCP, sTDA/sTD-DF
   Ed Valeev                                     : LibInt (2-el integral package), F12 methods
   Garnet Chan, S. Sharma, J. Yang, R. Olivares  : DMRG
   Ulf Ekstrom                                   : XCFun DFT Library
   Mihaly Kallay                                 : mrcc  (arbitrary order and MRCC methods)
   Andreas Klamt, Michael Diedenhofen            : otool_cosmo (COSMO solvation model)
   Jiri Pittner, Ondrej Demel                    : Mk-CCSD
   Frank Weinhold                                : gennbo (NPA and NBO analysis)
   Christopher J. Cramer and Donald G. Truhlar   : smd solvation model
   Lars Goerigk                                  : TD-DFT with DH, B97 family of functionals
   V. Asgeirsson, H. Jonsson                     : NEB implementation
   FAccTs GmbH                                   : IRC, NEB, NEB-TS, Multilevel


 Your calculation uses the libint2 library for the computation of 2-el integrals
 For citations please refer to: http://libint.valeyev.net

 This ORCA versions uses:
   CBLAS   interface :  Fast vector & matrix operations
   LAPACKE interface :  Fast linear algebra routines
   SCALAPACK package :  Parallel linear algebra routines




***************************************
The coordinates will be read from file: geom.xyz
***************************************


----- Orbital basis set information -----
Your calculation utilizes the basis: def2-SVP
   F. Weigend and R. Ahlrichs, Phys. Chem. Chem. Phys. 7, 3297 (2005).

----- AuxJ basis set information -----
Your calculation utilizes the auxiliary basis: def2/J
   F. Weigend, Phys. Chem. Chem. Phys. 8, 1057 (2006).

================================================================================
                                        WARNINGS
                       Please study these warnings very carefully!
================================================================================


WARNING: your system is open-shell and RHF/RKS was chosen
  ===> : WILL SWITCH to UHF/UKS


INFO   : the flag for use of LIBINT has been found!

================================================================================
                                       INPUT FILE
================================================================================
NAME = moess.inp
|  1> ! bp86 def2-svp
|  2> 
|  3> * xyzfile 2 3 geom.xyz
|  4> 
|  5> %eprnmr
|  6> nuclei = all Fe {fgrad, rho}
|  7> end
|  8> 
|  9> 
| 10>                          ****END OF INPUT****
================================================================================

                       ****************************
                       * Single Point Calculation *
                       ****************************

---------------------------------
CARTESIAN COORDINATES (ANGSTROEM)
---------------------------------
  Fe    -0.003431   -0.035901    0.191704
  O      0.007226    0.008325    1.846502
  N      1.554048   -1.407632    0.344106
  N      1.538234    1.424943    0.103493
  N     -1.556695    1.408550    0.125309
  N     -1.550508   -1.413455    0.366576
  C      2.629995   -0.616975    1.036221
  H      3.553741   -1.206278    1.047926
  H      2.295283   -0.456264    2.061576
  C      2.848007    0.693273    0.323818
  H      3.304020    0.537291   -0.654881
  H      3.517827    1.331291    0.908336
  C      1.299296    2.358097    1.268944
  H      2.142497    3.059987    1.290626
  H      1.323589    1.747352    2.171574
  C     -0.010204    3.147269    1.201094
  H     -0.008442    3.803428    2.078581
  H     -0.016658    3.808972    0.330327
  C     -1.313520    2.349732    1.282942
  H     -1.328780    1.743119    2.188713
  H     -2.161832    3.045389    1.307157
  C     -2.860670    0.672616    0.365884
  H     -3.524324    1.308720    0.959081
  H     -3.329688    0.514086   -0.606036
  C     -2.624450   -0.634941    1.074897
  H     -3.543122   -1.231939    1.096083
  H     -2.276773   -0.473980    2.095942
  C     -1.243598   -2.590231    1.255122
  H     -2.128580   -3.237182    1.239164
  H     -1.126331   -2.186786    2.262724
  C      0.009337   -3.361570    0.881650
  H      0.005865   -3.682628   -0.164772
  H      0.014308   -4.276464    1.482997
  C      1.260259   -2.580701    1.243238
  H      1.146278   -2.171486    2.248783
  H      2.148217   -3.223356    1.225556
  C      2.072583   -1.920958   -0.962204
  H      2.927686   -2.577855   -0.768149
  H      2.384376   -1.088318   -1.588696
  H      1.288132   -2.475332   -1.474577
  C      1.749116    2.256044   -1.129322
  H      2.575275    2.950770   -0.940974
  H      0.863088    2.832749   -1.375374
  H      2.008375    1.615787   -1.970115
  C     -1.790175    2.227509   -1.110158
  H     -2.629967    2.905430   -0.919636
  H     -2.041593    1.576254   -1.945458
  H     -0.915296    2.818733   -1.361444
  C     -2.077404   -1.919902   -0.938992
  H     -2.937114   -2.570540   -0.743326
  H     -1.298230   -2.478880   -1.454438
  H     -2.384777   -1.083477   -1.562879
  N      0.008603   -0.084785   -1.838313
  C      0.027599   -0.059543   -2.996176
  C      0.040635   -0.024538   -4.439096
  H     -0.567866    0.818920   -4.779512
  H     -0.371870   -0.960015   -4.827223
  H      1.066353    0.095957   -4.799441

----------------------------
CARTESIAN COORDINATES (A.U.)
----------------------------
  NO LB      ZA    FRAG     MASS         X           Y           Z
   0 Fe   26.0000    0    55.850   -0.006484   -0.067843    0.362268
   1 O     8.0000    0    15.999    0.013655    0.015732    3.489383
   2 N     7.0000    0    14.007    2.936725   -2.660039    0.650266
   3 N     7.0000    0    14.007    2.906841    2.692752    0.195573
   4 N     7.0000    0    14.007   -2.941727    2.661774    0.236800
   5 N     7.0000    0    14.007   -2.930035   -2.671043    0.692728
   6 C     6.0000    0    12.011    4.969970   -1.165914    1.958174
   7 H     1.0000    0     1.008    6.715597   -2.279535    1.980293
   8 H     1.0000    0     1.008    4.337456   -0.862214    3.895814
   9 C     6.0000    0    12.011    5.381953    1.310096    0.611927
  10 H     1.0000    0     1.008    6.243693    1.015333   -1.237546
  11 H     1.0000    0     1.008    6.647730    2.515775    1.716506
  12 C     6.0000    0    12.011    2.455314    4.456158    2.397957
  13 H     1.0000    0     1.008    4.048733    5.782537    2.438930
  14 H     1.0000    0     1.008    2.501221    3.302017    4.103680
  15 C     6.0000    0    12.011   -0.019283    5.947476    2.269739
  16 H     1.0000    0     1.008   -0.015953    7.187437    3.927949
  17 H     1.0000    0     1.008   -0.031479    7.197914    0.624228
  18 C     6.0000    0    12.011   -2.482193    4.440350    2.424409
  19 H     1.0000    0     1.008   -2.511030    3.294018    4.136068
  20 H     1.0000    0     1.008   -4.085270    5.754951    2.470169
  21 C     6.0000    0    12.011   -5.405883    1.271060    0.691421
  22 H     1.0000    0     1.008   -6.660007    2.473122    1.812400
  23 H     1.0000    0     1.008   -6.292198    0.971482   -1.145242
  24 C     6.0000    0    12.011   -4.959492   -1.199865    2.031261
  25 H     1.0000    0     1.008   -6.695530   -2.328027    2.071297
  26 H     1.0000    0     1.008   -4.302477   -0.895692    3.960756
  27 C     6.0000    0    12.011   -2.350060   -4.894827    2.371837
  28 H     1.0000    0     1.008   -4.022433   -6.117387    2.341681
  29 H     1.0000    0     1.008   -2.128457   -4.132427    4.275929
  30 C     6.0000    0    12.011    0.017644   -6.352447    1.666077
  31 H     1.0000    0     1.008    0.011083   -6.959158   -0.311374
  32 H     1.0000    0     1.008    0.027038   -8.081346    2.802458
  33 C     6.0000    0    12.011    2.381544   -4.876818    2.349379
  34 H     1.0000    0     1.008    2.166151   -4.103514    4.249584
  35 H     1.0000    0     1.008    4.059542   -6.091260    2.315965
  36 C     6.0000    0    12.011    3.916614   -3.630085   -1.818302
  37 H     1.0000    0     1.008    5.532525   -4.871440   -1.451591
  38 H     1.0000    0     1.008    4.505818   -2.056623   -3.002200
  39 H     1.0000    0     1.008    2.434217   -4.677700   -2.786547
  40 C     6.0000    0    12.011    3.305350    4.263305   -2.134109
  41 H     1.0000    0     1.008    4.866564    5.576147   -1.778183
  42 H     1.0000    0     1.008    1.631000    5.353120   -2.599080
  43 H     1.0000    0     1.008    3.795279    3.053395   -3.722978
  44 C     6.0000    0    12.011   -3.382940    4.209382   -2.097895
  45 H     1.0000    0     1.008   -4.969917    5.490467   -1.737860
  46 H     1.0000    0     1.008   -3.858052    2.978688   -3.676383
  47 H     1.0000    0     1.008   -1.729659    5.326633   -2.572756
  48 C     6.0000    0    12.011   -3.925725   -3.628089   -1.774438
  49 H     1.0000    0     1.008   -5.550341   -4.857617   -1.404683
  50 H     1.0000    0     1.008   -2.453299   -4.684404   -2.748489
  51 H     1.0000    0     1.008   -4.506575   -2.047475   -2.953413
  52 N     7.0000    0    14.007    0.016257   -0.160220   -3.473908
  53 C     6.0000    0    12.011    0.052155   -0.112520   -5.661952
  54 C     6.0000    0    12.011    0.076789   -0.046370   -8.388676
  55 H     1.0000    0     1.008   -1.073111    1.547535   -9.031969
  56 H     1.0000    0     1.008   -0.702732   -1.814165   -9.122129
  57 H     1.0000    0     1.008    2.015115    0.181332   -9.069629

--------------------------------
INTERNAL COORDINATES (ANGSTROEM)
--------------------------------
 Fe     0   0   0     0.000000000000     0.00000000     0.00000000
 O      1   0   0     1.655423188049     0.00000000     0.00000000
 N      1   2   0     2.081012527931    86.53637689     0.00000000
 N      1   2   3     2.125694555923    91.05733692   275.05135484
 N      1   2   3     2.122139496151    91.02006660   181.49000265
 N      1   2   3     2.078865672243    86.46873534    96.78697953
 C      3   1   2     1.503936039758   102.86183579   298.55991620
 H      7   3   1     1.095774477413   108.98302422   187.59764564
 H      7   3   1     1.090510442174   106.89379435    69.76211088
 C      7   3   1     1.507248183962   110.05833635   308.95190374
 H     10   7   3     1.090930782907   111.11215077   290.89368544
 H     10   7   3     1.094251841693   110.05477114   171.49026721
 C      4   1   2     1.511999930212   106.11338382   325.44601179
 H     13   4   1     1.097318371133   106.77194677   174.73950884
 H     13   4   1     1.090110325506   106.79461362    58.29094473
 C     13   4   1     1.530420307655   114.78969775   295.88107578
 H     16  13   4     1.095687534425   105.77872899   182.76816142
 H     16  13   4     1.093676223850   110.63011821   297.10357555
 C      5   1   2     1.511645395071   106.38484130    34.74390153
 H     19   5   1     1.090244607329   106.71154274   301.16963699
 H     19   5   1     1.097341458808   106.69324101   184.89049993
 C      5   1   2     1.516517716219   107.10232832   278.74625694
 H     22   5   1     1.094051009479   108.99270886   143.56244887
 H     22   5   1     1.090751177686   107.39199018   260.16613135
 C      6   1   2     1.503713438991   103.18234959    61.34193957
 H     25   6   1     1.095816454605   109.01347497   172.29973998
 H     25   6   1     1.090559779139   106.84281142   290.23924913
 C      6   1   2     1.506157195113   114.56427689   306.86135583
 H     28   6   1     1.096354593409   106.73672947   181.12558204
 H     28   6   1     1.091687321406   106.11999867    65.47990449
 C     28   6   1     1.517989229847   114.83805814   304.95307825
 H     31  28   6     1.094572654615   112.43492948   306.23080672
 H     31  28   6     1.094839694424   107.05144772   189.90392377
 C      3   1   2     1.506931056388   114.26209928    52.84973133
 H     34   3   1     1.091590276437   106.15067115   295.14523445
 H     34   3   1     1.096260695233   106.78661310   179.39400964
 C      3   1   2     1.496271347250   114.93376303   179.60021258
 H     37   3   1     1.095614965324   108.75588558   176.20960714
 H     37   3   1     1.087656411976   109.85166945    56.12391904
 H     37   3   1     1.088678094942   109.62579415   296.39346416
 C      4   1   2     1.501676701008   121.08191179   201.73058661
 H     41   4   1     1.095745352471   108.40091470   178.72063077
 H     41   4   1     1.085438096122   111.43959214    59.36776294
 H     41   4   1     1.088153079295   110.00812043   297.86606430
 C      5   1   2     1.500528394323   120.73963385   158.64576327
 H     45   5   1     1.095958994666   108.28218040   180.31225451
 H     45   5   1     1.088609285166   109.94959173    61.25438088
 H     45   5   1     1.085404872208   111.25306281   299.72998294
 C      6   1   2     1.496200441535   114.39149624   180.27131360
 H     49   6   1     1.095771999414   108.75139887   184.62315789
 H     49   6   1     1.088693301934   109.56567775    64.42114401
 H     49   6   1     1.087805097673   109.85816814   304.71010475
 N      1   2   3     2.030641150696   179.27558767   306.47085875
 C     53   1   2     1.158293889023   177.30419606   294.94460823
 C     54  53   1     1.443403413368   179.55491306   275.59986928
 H     55  54  53     1.094339032394   108.94351295    35.32723511
 H     55  54  53     1.093581346166   109.30778359   275.31332204
 H     55  54  53     1.093830416278   109.90516544   155.31971569

---------------------------
INTERNAL COORDINATES (A.U.)
---------------------------
 Fe     0   0   0     0.000000000000     0.00000000     0.00000000
 O      1   0   0     3.128296461155     0.00000000     0.00000000
 N      1   2   0     3.932543759049    86.53637689     0.00000000
 N      1   2   3     4.016980555062    91.05733692   275.05135484
 N      1   2   3     4.010262465702    91.02006660   181.49000265
 N      1   2   3     3.928486789749    86.46873534    96.78697953
 C      3   1   2     2.842027238077   102.86183579   298.55991620
 H      7   3   1     2.070713666851   108.98302422   187.59764564
 H      7   3   1     2.060766081890   106.89379435    69.76211088
 C      7   3   1     2.848286283538   110.05833635   308.95190374
 H     10   7   3     2.061560410758   111.11215077   290.89368544
 H     10   7   3     2.067836302338   110.05477114   171.49026721
 C      4   1   2     2.857265782609   106.11338382   325.44601179
 H     13   4   1     2.073631203161   106.77194677   174.73950884
 H     13   4   1     2.060009970965   106.79461362    58.29094473
 C     13   4   1     2.892075251260   114.78969775   295.88107578
 H     16  13   4     2.070549368414   105.77872899   182.76816142
 H     16  13   4     2.066748542257   110.63011821   297.10357555
 C      5   1   2     2.856595808287   106.38484130    34.74390153
 H     19   5   1     2.060263726836   106.71154274   301.16963699
 H     19   5   1     2.073674832544   106.69324101   184.89049993
 C      5   1   2     2.865803160894   107.10232832   278.74625694
 H     22   5   1     2.067456784455   108.99270886   143.56244887
 H     22   5   1     2.061221006079   107.39199018   260.16613135
 C      6   1   2     2.841606583589   103.18234959    61.34193957
 H     25   6   1     2.070792992249   109.01347497   172.29973998
 H     25   6   1     2.060859315242   106.84281142   290.23924913
 C      6   1   2     2.846224613399   114.56427689   306.86135583
 H     28   6   1     2.071809927210   106.73672947   181.12558204
 H     28   6   1     2.062990061331   106.11999867    65.47990449
 C     28   6   1     2.868583918652   114.83805814   304.95307825
 H     31  28   6     2.068442550902   112.43492948   306.23080672
 H     31  28   6     2.068947183007   107.05144772   189.90392377
 C      3   1   2     2.847686999274   114.26209928    52.84973133
 H     34   3   1     2.062806672917   106.15067115   295.14523445
 H     34   3   1     2.071632485373   106.78661310   179.39400964
 C      3   1   2     2.827543068336   114.93376303   179.60021258
 H     37   3   1     2.070412232689   108.75588558   176.20960714
 H     37   3   1     2.055372746438   109.85166945    56.12391904
 H     37   3   1     2.057303447439   109.62579415   296.39346416
 C      4   1   2     2.837757706595   121.08191179   201.73058661
 H     41   4   1     2.070658628687   108.40091470   178.72063077
 H     41   4   1     2.051180736996   111.43959214    59.36776294
 H     41   4   1     2.056311311650   110.00812043   297.86606430
 C      5   1   2     2.835587721443   120.73963385   158.64576327
 H     45   5   1     2.071062353926   108.28218040   180.31225451
 H     45   5   1     2.057173415807   109.94959173    61.25438088
 H     45   5   1     2.051117952897   111.25306281   299.72998294
 C      6   1   2     2.827409075953   114.39149624   180.27131360
 H     49   6   1     2.070708984112   108.75139887   184.62315789
 H     49   6   1     2.057332184490   109.56567775    64.42114401
 H     49   6   1     2.055653721685   109.85816814   304.71010475
 N      1   2   3     3.837355651087   179.27558767   306.47085875
 C     53   1   2     2.188858232849   177.30419606   294.94460823
 C     54  53   1     2.727637152032   179.55491306   275.59986928
 H     55  54  53     2.068001068885   108.94351295    35.32723511
 H     55  54  53     2.066569249419   109.30778359   275.31332204
 H     55  54  53     2.067039923718   109.90516544   155.31971569

---------------------
BASIS SET INFORMATION
---------------------
There are 5 groups of distinct atoms

 Group   1 Type Fe  : 14s9p5d1f contracted to 5s3p2d1f pattern {63311/531/41/1}
 Group   2 Type O   : 7s4p1d contracted to 3s2p1d pattern {511/31/1}
 Group   3 Type N   : 7s4p1d contracted to 3s2p1d pattern {511/31/1}
 Group   4 Type C   : 7s4p1d contracted to 3s2p1d pattern {511/31/1}
 Group   5 Type H   : 4s1p contracted to 2s1p pattern {31/1}

Atom   0Fe   basis set group =>   1
Atom   1O    basis set group =>   2
Atom   2N    basis set group =>   3
Atom   3N    basis set group =>   3
Atom   4N    basis set group =>   3
Atom   5N    basis set group =>   3
Atom   6C    basis set group =>   4
Atom   7H    basis set group =>   5
Atom   8H    basis set group =>   5
Atom   9C    basis set group =>   4
Atom  10H    basis set group =>   5
Atom  11H    basis set group =>   5
Atom  12C    basis set group =>   4
Atom  13H    basis set group =>   5
Atom  14H    basis set group =>   5
Atom  15C    basis set group =>   4
Atom  16H    basis set group =>   5
Atom  17H    basis set group =>   5
Atom  18C    basis set group =>   4
Atom  19H    basis set group =>   5
Atom  20H    basis set group =>   5
Atom  21C    basis set group =>   4
Atom  22H    basis set group =>   5
Atom  23H    basis set group =>   5
Atom  24C    basis set group =>   4
Atom  25H    basis set group =>   5
Atom  26H    basis set group =>   5
Atom  27C    basis set group =>   4
Atom  28H    basis set group =>   5
Atom  29H    basis set group =>   5
Atom  30C    basis set group =>   4
Atom  31H    basis set group =>   5
Atom  32H    basis set group =>   5
Atom  33C    basis set group =>   4
Atom  34H    basis set group =>   5
Atom  35H    basis set group =>   5
Atom  36C    basis set group =>   4
Atom  37H    basis set group =>   5
Atom  38H    basis set group =>   5
Atom  39H    basis set group =>   5
Atom  40C    basis set group =>   4
Atom  41H    basis set group =>   5
Atom  42H    basis set group =>   5
Atom  43H    basis set group =>   5
Atom  44C    basis set group =>   4
Atom  45H    basis set group =>   5
Atom  46H    basis set group =>   5
Atom  47H    basis set group =>   5
Atom  48C    basis set group =>   4
Atom  49H    basis set group =>   5
Atom  50H    basis set group =>   5
Atom  51H    basis set group =>   5
Atom  52N    basis set group =>   3
Atom  53C    basis set group =>   4
Atom  54C    basis set group =>   4
Atom  55H    basis set group =>   5
Atom  56H    basis set group =>   5
Atom  57H    basis set group =>   5
-------------------------------
AUXILIARY BASIS SET INFORMATION
-------------------------------
There are 5 groups of distinct atoms

 Group   1 Type Fe  : 19s5p5d3f3g contracted to 8s5p5d2f3g pattern {121111111/11111/11111/21/111}
 Group   2 Type O   : 12s5p4d2f1g contracted to 6s4p3d1f1g pattern {711111/2111/211/2/1}
 Group   3 Type N   : 12s5p4d2f1g contracted to 6s4p3d1f1g pattern {711111/2111/211/2/1}
 Group   4 Type C   : 12s5p4d2f1g contracted to 6s4p3d1f1g pattern {711111/2111/211/2/1}
 Group   5 Type H   : 5s2p1d contracted to 3s1p1d pattern {311/2/1}

Atom   0Fe   basis set group =>   1
Atom   1O    basis set group =>   2
Atom   2N    basis set group =>   3
Atom   3N    basis set group =>   3
Atom   4N    basis set group =>   3
Atom   5N    basis set group =>   3
Atom   6C    basis set group =>   4
Atom   7H    basis set group =>   5
Atom   8H    basis set group =>   5
Atom   9C    basis set group =>   4
Atom  10H    basis set group =>   5
Atom  11H    basis set group =>   5
Atom  12C    basis set group =>   4
Atom  13H    basis set group =>   5
Atom  14H    basis set group =>   5
Atom  15C    basis set group =>   4
Atom  16H    basis set group =>   5
Atom  17H    basis set group =>   5
Atom  18C    basis set group =>   4
Atom  19H    basis set group =>   5
Atom  20H    basis set group =>   5
Atom  21C    basis set group =>   4
Atom  22H    basis set group =>   5
Atom  23H    basis set group =>   5
Atom  24C    basis set group =>   4
Atom  25H    basis set group =>   5
Atom  26H    basis set group =>   5
Atom  27C    basis set group =>   4
Atom  28H    basis set group =>   5
Atom  29H    basis set group =>   5
Atom  30C    basis set group =>   4
Atom  31H    basis set group =>   5
Atom  32H    basis set group =>   5
Atom  33C    basis set group =>   4
Atom  34H    basis set group =>   5
Atom  35H    basis set group =>   5
Atom  36C    basis set group =>   4
Atom  37H    basis set group =>   5
Atom  38H    basis set group =>   5
Atom  39H    basis set group =>   5
Atom  40C    basis set group =>   4
Atom  41H    basis set group =>   5
Atom  42H    basis set group =>   5
Atom  43H    basis set group =>   5
Atom  44C    basis set group =>   4
Atom  45H    basis set group =>   5
Atom  46H    basis set group =>   5
Atom  47H    basis set group =>   5
Atom  48C    basis set group =>   4
Atom  49H    basis set group =>   5
Atom  50H    basis set group =>   5
Atom  51H    basis set group =>   5
Atom  52N    basis set group =>   3
Atom  53C    basis set group =>   4
Atom  54C    basis set group =>   4
Atom  55H    basis set group =>   5
Atom  56H    basis set group =>   5
Atom  57H    basis set group =>   5
------------------------------------------------------------------------------
                           ORCA GTO INTEGRAL CALCULATION
                           -- RI-GTO INTEGRALS CHOSEN --
------------------------------------------------------------------------------

                         BASIS SET STATISTICS AND STARTUP INFO

Gaussian basis set:
 # of primitive gaussian shells          ...  468
 # of primitive gaussian functions       ...  846
 # of contracted shells                  ...  248
 # of contracted basis functions         ...  514
 Highest angular momentum                ...    3
 Maximum contraction depth               ...    6
Auxiliary gaussian basis set:
 # of primitive gaussian shells          ...  843
 # of primitive gaussian functions       ... 2207
 # of contracted shells                  ...  528
 # of contracted aux-basis functions     ... 1552
 Highest angular momentum                ...    4
 Maximum contraction depth               ...   12
Ratio of auxiliary to basis functions    ...  3.02
Integral package used                  ... LIBINT
 One Electron integrals                  ... done
 Ordering auxiliary basis shells         ... done
 Integral threshhold             Thresh  ...  1.000e-10
 Primitive cut-off               TCut    ...  1.000e-11
 Pre-screening matrix                    ... done
 Shell pair data                         ... 
 Ordering of the shell pairs             ... done (   0.005 sec) 25595 of 30876 pairs
 Determination of significant pairs      ... done (   0.000 sec)
 Creation of shell pair data             ... done (   0.003 sec)
 Storage of shell pair data              ... done (   0.005 sec)
 Shell pair data done in (   0.013 sec)
 Computing two index integrals           ... done
 Cholesky decomposition of the V-matrix  ... done


Timings:
 Total evaluation time                   ...   0.517 sec (  0.009 min)
 One electron matrix time                ...   0.190 sec (  0.003 min) = 36.8%
 Schwartz matrix evaluation time         ...   0.201 sec (  0.003 min) = 38.8%
 Two index repulsion integral time       ...   0.046 sec (  0.001 min) =  8.9%
 Cholesky decomposition of V             ...   0.048 sec (  0.001 min) =  9.3%
 Three index repulsion integral time     ...   0.000 sec (  0.000 min) =  0.0%

-------------------------------------------------------------------------------
                                 ORCA SCF
-------------------------------------------------------------------------------

------------
SCF SETTINGS
------------
Hamiltonian:
 Density Functional     Method          .... DFT(GTOs)
 Exchange Functional    Exchange        .... B88
   X-Alpha parameter    XAlpha          ....  0.666667
   Becke's b parameter  XBeta           ....  0.004200
 Correlation Functional Correlation     .... P86
 LDA part of GGA corr.  LDAOpt          .... PW91-LDA
 Gradients option       PostSCFGGA      .... off
   Density functional embedding theory  .... OFF
 RI-approximation to the Coulomb term is turned on
   Number of auxiliary basis functions  .... 1552


General Settings:
 Integral files         IntName         .... moess
 Hartree-Fock type      HFTyp           .... UHF
 Total Charge           Charge          ....    2
 Multiplicity           Mult            ....    3
 Number of Electrons    NEL             ....  198
 Basis Dimension        Dim             ....  514
 Nuclear Repulsion      ENuc            ....   3077.3684321093 Eh

Convergence Acceleration:
 DIIS                   CNVDIIS         .... on
   Start iteration      DIISMaxIt       ....    12
   Startup error        DIISStart       ....  0.200000
   # of expansion vecs  DIISMaxEq       ....     5
   Bias factor          DIISBfac        ....   1.050
   Max. coefficient     DIISMaxC        ....  10.000
 Newton-Raphson         CNVNR           .... off
 SOSCF                  CNVSOSCF        .... off
 Level Shifting         CNVShift        .... on
   Level shift para.    LevelShift      ....    0.2500
   Turn off err/grad.   ShiftErr        ....    0.0010
 Zerner damping         CNVZerner       .... off
 Static damping         CNVDamp         .... on
   Fraction old density DampFac         ....    0.7000
   Max. Damping (<1)    DampMax         ....    0.9800
   Min. Damping (>=0)   DampMin         ....    0.0000
   Turn off err/grad.   DampErr         ....    0.1000
 Fernandez-Rico         CNVRico         .... off

SCF Procedure:
 Maximum # iterations   MaxIter         ....   125
 SCF integral mode      SCFMode         .... Direct
   Integral package                     .... LIBINT
 Reset frequency        DirectResetFreq ....    20
 Integral Threshold     Thresh          ....  1.000e-10 Eh
 Primitive CutOff       TCut            ....  1.000e-11 Eh

Convergence Tolerance:
 Convergence Check Mode ConvCheckMode   .... Total+1el-Energy
 Convergence forced     ConvForced      .... 0
 Energy Change          TolE            ....  1.000e-06 Eh
 1-El. energy change                    ....  1.000e-03 Eh
 DIIS Error             TolErr          ....  1.000e-06


Diagonalization of the overlap matrix:
Smallest eigenvalue                        ... 8.992e-04
Time for diagonalization                   ...    0.037 sec
Threshold for overlap eigenvalues          ... 1.000e-08
Number of eigenvalues below threshold      ... 0
Time for construction of square roots      ...    0.020 sec
Total time needed                          ...    0.057 sec

-------------------
DFT GRID GENERATION
-------------------

General Integration Accuracy     IntAcc      ...  4.340
Radial Grid Type                 RadialGrid  ... Gauss-Chebyshev
Angular Grid (max. acc.)         AngularGrid ... Lebedev-110
Angular grid pruning method      GridPruning ... 3 (G Style)
Weight generation scheme         WeightScheme... Becke
Basis function cutoff            BFCut       ...    1.0000e-10
Integration weight cutoff        WCut        ...    1.0000e-14
Grids for H and He will be reduced by one unit

# of grid points (after initial pruning)     ...  67424 (   0.0 sec)
# of grid points (after weights+screening)   ...  57702 (   1.0 sec)
nearest neighbour list constructed           ...    0.0 sec
Grid point re-assignment to atoms done       ...    0.0 sec
Grid point division into batches done        ...    0.0 sec
Reduced shell lists constructed in    0.8 sec

Total number of grid points                  ...    57702
Total number of batches                      ...      937
Average number of points per batch           ...       61
Average number of grid points per atom       ...      995
Average number of shells per batch           ...   130.93 (52.79%)
Average number of basis functions per batch  ...   247.26 (48.11%)
Average number of large shells per batch     ...    80.83 (61.74%)
Average number of large basis fcns per batch ...   152.87 (61.82%)
Maximum spatial batch extension              ...  20.19, 20.57, 22.06 au
Average spatial batch extension              ...   2.94,  2.95,  3.11 au

Time for grid setup =    1.828 sec

------------------------------
INITIAL GUESS: MODEL POTENTIAL
------------------------------
Loading Hartree-Fock densities                     ... done
Calculating cut-offs                               ... done
Setting up the integral package                    ... done
Initializing the effective Hamiltonian             ... done
Starting the Coulomb interaction                   ... done (   2.2 sec)
Reading the grid                                   ... done
Mapping shells                                     ... done
Starting the XC term evaluation                    ... done (   1.4 sec)
  promolecular density results
     # of electrons  =    199.987932791
     EX              =   -188.325711075
     EC              =     -7.765879547
     EX+EC           =   -196.091590621
Transforming the Hamiltonian                       ... done (   0.0 sec)
Diagonalizing the Hamiltonian                      ... done (   0.0 sec)
Back transforming the eigenvectors                 ... done (   0.0 sec)
Now organizing SCF variables                       ... done
                      ------------------
                      INITIAL GUESS DONE (   5.5 sec)
                      ------------------
--------------
SCF ITERATIONS
--------------
ITER       Energy         Delta-E        Max-DP      RMS-DP      [F,P]     Damp
               ***  Starting incremental Fock matrix formation  ***
  0  -2241.4819006177   0.000000000000 0.25010133  0.00133268  0.6527276 0.7000
  1  -2241.6711682525  -0.189267634746 0.10370831  0.00074745  0.3367863 0.7000
                               ***Turning on DIIS***
  2  -2241.9106534423  -0.239485189786 0.10016863  0.00083127  0.0897666 0.0000
  3  -2242.2148309761  -0.304177533793 0.04855258  0.00027143  0.2432064 0.7000
  4  -2242.2654366203  -0.050605644222 0.07857749  0.00057463  0.0575907 0.0000
  5  -2242.2322074169   0.033229203398 0.00928124  0.00004866  0.3110605 0.7000
  6  -2242.2525801315  -0.020372714573 0.01142299  0.00005617  0.2678664 0.7000
  7  -2242.2733858287  -0.020805697266 0.01255305  0.00007047  0.2153558 0.7000
  8  -2242.2919000348  -0.018514206105 0.01315674  0.00006764  0.1570633 0.7000
  9  -2242.3051256167  -0.013225581858 0.02717031  0.00016756  0.0917041 0.0000
 10  -2242.3119493129  -0.006823696199 0.00777583  0.00006297  0.0565239 0.0000
 11  -2242.3140416895  -0.002092376648 0.00544480  0.00002942  0.0267048 0.0000
 12  -2242.3149084556  -0.000866766014 0.00246410  0.00001207  0.0093640 0.0000
 13  -2242.3150175161  -0.000109060496 0.00197343  0.00000709  0.0025252 0.0000
 14  -2242.3150342613  -0.000016745201 0.00095876  0.00000432  0.0015033 0.0000
 15  -2242.3150394924  -0.000005231184 0.00060921  0.00000253  0.0014724 0.0000
 16  -2242.3150416681  -0.000002175614 0.00046761  0.00000171  0.0015571 0.0000
 17  -2242.3150441310  -0.000002462961 0.00028403  0.00000133  0.0012266 0.0000
 18  -2242.3150458951  -0.000001764072 0.00136768  0.00000485  0.0005704 0.0000
 19  -2242.3150437967   0.000002098372 0.00021757  0.00000125  0.0018547 0.0000
               *** Restarting incremental Fock matrix formation ***
                                   *** Resetting DIIS ***
 20  -2242.3150464292  -0.000002632450 0.00111066  0.00000668  0.0010492 0.0000
 21  -2242.3150246869   0.000021742254 0.00063550  0.00000332  0.0049353 0.0000
 22  -2242.3150399609  -0.000015273962 0.00019527  0.00000123  0.0027384 0.0000
 23  -2242.3150451222  -0.000005161279 0.00013476  0.00000068  0.0016214 0.0000
 24  -2242.3150474888  -0.000002366633 0.00032766  0.00000139  0.0009751 0.0000
 25  -2242.3150497809  -0.000002292089 0.00006907  0.00000035  0.0002415 0.0000
 26  -2242.3150495334   0.000000247444 0.00002699  0.00000016  0.0001234 0.0000
                 **** Energy Check signals convergence ****

               *****************************************************
               *                     SUCCESS                       *
               *           SCF CONVERGED AFTER  27 CYCLES          *
               *****************************************************

Setting up the final grid:

General Integration Accuracy     IntAcc      ...  4.670
Radial Grid Type                 RadialGrid  ... Gauss-Chebyshev
Angular Grid (max. acc.)         AngularGrid ... Lebedev-302
Angular grid pruning method      GridPruning ... 3 (G Style)
Weight generation scheme         WeightScheme... Becke
Basis function cutoff            BFCut       ...    1.0000e-10
Integration weight cutoff        WCut        ...    1.0000e-14
Grids for H and He will be reduced by one unit

# of grid points (after initial pruning)     ... 265094 (   0.1 sec)
# of grid points (after weights+screening)   ... 220843 (   3.8 sec)
nearest neighbour list constructed           ...    0.0 sec
Grid point re-assignment to atoms done       ...    0.0 sec
Grid point division into batches done        ...    0.6 sec
Reduced shell lists constructed in    3.3 sec

Total number of grid points                  ...   220843
Total number of batches                      ...     3484
Average number of points per batch           ...       63
Average number of grid points per atom       ...     3808
Average number of shells per batch           ...   119.00 (47.98%)
Average number of basis functions per batch  ...   221.67 (43.13%)
Average number of large shells per batch     ...    70.89 (59.57%)
Average number of large basis fcns per batch ...   131.97 (59.53%)
Maximum spatial batch extension              ...  25.89, 19.46, 20.74 au
Average spatial batch extension              ...   1.96,  1.91,  2.00 au

Final grid set up in    7.3 sec
Final integration                            ... done (  10.0 sec)
Change in XC energy                          ...     0.001091143
Integrated number of electrons               ...   198.000611449
Previous integrated no of electrons          ...   198.006516947

----------------
TOTAL SCF ENERGY
----------------

Total Energy       :        -2242.31395794 Eh          -61016.46481 eV

Components:
Nuclear Repulsion  :         3077.36843211 Eh           83739.45227 eV
Electronic Energy  :        -5319.68239005 Eh         -144755.91708 eV
One Electron Energy:        -9150.05265062 Eh         -248985.59081 eV
Two Electron Energy:         3830.37026057 Eh          104229.67372 eV

Virial components:
Potential Energy   :        -4470.27055118 Eh         -121642.24587 eV
Kinetic Energy     :         2227.95659323 Eh           60625.78106 eV
Virial Ratio       :            2.00644419


DFT components:
N(Alpha)           :      100.000293420258 electrons
N(Beta)            :       98.000318028510 electrons
N(Total)           :      198.000611448767 electrons
E(X)               :     -190.546979176490 Eh       
E(C)               :       -7.623304542682 Eh       
E(XC)              :     -198.170283719171 Eh       
DFET-embed. en.    :        0.000000000000 Eh       

---------------
SCF CONVERGENCE
---------------

  Last Energy change         ...    4.4675e-07  Tolerance :   1.0000e-06
  Last MAX-Density change    ...    8.6045e-06  Tolerance :   1.0000e-05
  Last RMS-Density change    ...    5.5248e-08  Tolerance :   1.0000e-06
  Last DIIS Error            ...    1.0666e-05  Tolerance :   1.0000e-06

             **** THE GBW FILE WAS UPDATED (moess.gbw) ****
             **** DENSITY FILE WAS UPDATED (moess.scfp.tmp) ****
             **** ENERGY FILE WAS UPDATED (moess.en.tmp) ****
----------------------
UHF SPIN CONTAMINATION
----------------------

Warning: in a DFT calculation there is little theoretical justification to 
         calculate <S**2> as in Hartree-Fock theory. We will do it anyways
         but you should keep in mind that the values have only limited relevance

Expectation value of <S**2>     :     2.016626
Ideal value S*(S+1) for S=1.0   :     2.000000
Deviation                       :     0.016626

----------------
ORBITAL ENERGIES
----------------
                 SPIN UP ORBITALS
  NO   OCC          E(Eh)            E(eV) 
   0   1.0000    -255.100330     -6941.6329 
   1   1.0000     -29.867197      -812.7277 
   2   1.0000     -25.828168      -702.8202 
   3   1.0000     -25.811031      -702.3539 
   4   1.0000     -25.809794      -702.3202 
   5   1.0000     -19.017423      -517.4904 
   6   1.0000     -14.317484      -389.5985 
   7   1.0000     -14.317342      -389.5947 
   8   1.0000     -14.315964      -389.5572 
   9   1.0000     -14.315880      -389.5549 
  10   1.0000     -14.301913      -389.1748 
  11   1.0000     -10.248232      -278.8686 
  12   1.0000     -10.200198      -277.5615 
  13   1.0000     -10.187949      -277.2282 
  14   1.0000     -10.187694      -277.2212 
  15   1.0000     -10.183673      -277.1118 
  16   1.0000     -10.183639      -277.1109 
  17   1.0000     -10.182409      -277.0774 
  18   1.0000     -10.182226      -277.0725 
  19   1.0000     -10.181558      -277.0543 
  20   1.0000     -10.181471      -277.0519 
  21   1.0000     -10.176880      -276.9270 
  22   1.0000     -10.176798      -276.9248 
  23   1.0000     -10.175910      -276.9006 
  24   1.0000     -10.175731      -276.8957 
  25   1.0000     -10.148315      -276.1497 
  26   1.0000     -10.146778      -276.1079 
  27   1.0000      -3.567789       -97.0845 
  28   1.0000      -2.409465       -65.5649 
  29   1.0000      -2.370588       -64.5070 
  30   1.0000      -2.367201       -64.4148 
  31   1.0000      -1.123825       -30.5808 
  32   1.0000      -1.112522       -30.2733 
  33   1.0000      -1.111958       -30.2579 
  34   1.0000      -1.098423       -29.8896 
  35   1.0000      -1.090586       -29.6763 
  36   1.0000      -1.052553       -28.6414 
  37   1.0000      -0.961440       -26.1621 
  38   1.0000      -0.954612       -25.9763 
  39   1.0000      -0.940373       -25.5889 
  40   1.0000      -0.929416       -25.2907 
  41   1.0000      -0.916107       -24.9285 
  42   1.0000      -0.885712       -24.1015 
  43   1.0000      -0.877625       -23.8814 
  44   1.0000      -0.872868       -23.7519 
  45   1.0000      -0.846036       -23.0218 
  46   1.0000      -0.835163       -22.7259 
  47   1.0000      -0.800087       -21.7715 
  48   1.0000      -0.787457       -21.4278 
  49   1.0000      -0.765940       -20.8423 
  50   1.0000      -0.764851       -20.8126 
  51   1.0000      -0.748741       -20.3743 
  52   1.0000      -0.723270       -19.6812 
  53   1.0000      -0.709359       -19.3027 
  54   1.0000      -0.705928       -19.2093 
  55   1.0000      -0.701229       -19.0814 
  56   1.0000      -0.694956       -18.9107 
  57   1.0000      -0.692468       -18.8430 
  58   1.0000      -0.687339       -18.7035 
  59   1.0000      -0.676239       -18.4014 
  60   1.0000      -0.673652       -18.3310 
  61   1.0000      -0.668237       -18.1836 
  62   1.0000      -0.666376       -18.1330 
  63   1.0000      -0.662832       -18.0366 
  64   1.0000      -0.660661       -17.9775 
  65   1.0000      -0.653775       -17.7901 
  66   1.0000      -0.639733       -17.4080 
  67   1.0000      -0.637569       -17.3491 
  68   1.0000      -0.628371       -17.0988 
  69   1.0000      -0.622040       -16.9266 
  70   1.0000      -0.620396       -16.8818 
  71   1.0000      -0.615250       -16.7418 
  72   1.0000      -0.603055       -16.4100 
  73   1.0000      -0.600424       -16.3384 
  74   1.0000      -0.595570       -16.2063 
  75   1.0000      -0.589238       -16.0340 
  76   1.0000      -0.588450       -16.0125 
  77   1.0000      -0.579088       -15.7578 
  78   1.0000      -0.577816       -15.7232 
  79   1.0000      -0.572040       -15.5660 
  80   1.0000      -0.569611       -15.4999 
  81   1.0000      -0.568916       -15.4810 
  82   1.0000      -0.568569       -15.4716 
  83   1.0000      -0.561439       -15.2775 
  84   1.0000      -0.561316       -15.2742 
  85   1.0000      -0.557190       -15.1619 
  86   1.0000      -0.552304       -15.0289 
  87   1.0000      -0.547472       -14.8975 
  88   1.0000      -0.542030       -14.7494 
  89   1.0000      -0.539842       -14.6898 
  90   1.0000      -0.537218       -14.6185 
  91   1.0000      -0.532808       -14.4984 
  92   1.0000      -0.529556       -14.4099 
  93   1.0000      -0.525074       -14.2880 
  94   1.0000      -0.522265       -14.2115 
  95   1.0000      -0.501040       -13.6340 
  96   1.0000      -0.494135       -13.4461 
  97   1.0000      -0.451141       -12.2762 
  98   1.0000      -0.435814       -11.8591 
  99   1.0000      -0.433092       -11.7850 
 100   0.0000      -0.361156        -9.8276 
 101   0.0000      -0.333095        -9.0640 
 102   0.0000      -0.287212        -7.8154 
 103   0.0000      -0.286385        -7.7929 
 104   0.0000      -0.225165        -6.1271 
 105   0.0000      -0.198411        -5.3990 
 106   0.0000      -0.195228        -5.3124 
 107   0.0000      -0.191983        -5.2241 
 108   0.0000      -0.179037        -4.8718 
 109   0.0000      -0.172423        -4.6919 
 110   0.0000      -0.170792        -4.6475 
 111   0.0000      -0.164317        -4.4713 
 112   0.0000      -0.161226        -4.3872 
 113   0.0000      -0.159783        -4.3479 
 114   0.0000      -0.149936        -4.0800 
 115   0.0000      -0.147215        -4.0059 
 116   0.0000      -0.142272        -3.8714 
 117   0.0000      -0.141731        -3.8567 
 118   0.0000      -0.135466        -3.6862 
 119   0.0000      -0.129181        -3.5152 
 120   0.0000      -0.128530        -3.4975 
 121   0.0000      -0.123976        -3.3736 
 122   0.0000      -0.122321        -3.3285 
 123   0.0000      -0.121346        -3.3020 
 124   0.0000      -0.117379        -3.1941 
 125   0.0000      -0.115401        -3.1402 
 126   0.0000      -0.110939        -3.0188 
 127   0.0000      -0.109888        -2.9902 
 128   0.0000      -0.106234        -2.8908 
 129   0.0000      -0.105215        -2.8631 
 130   0.0000      -0.102573        -2.7912 
 131   0.0000      -0.100907        -2.7458 
 132   0.0000      -0.096838        -2.6351 
 133   0.0000      -0.095060        -2.5867 
 134   0.0000      -0.088983        -2.4213 
 135   0.0000      -0.088257        -2.4016 
 136   0.0000      -0.086593        -2.3563 
 137   0.0000      -0.084490        -2.2991 
 138   0.0000      -0.076769        -2.0890 
 139   0.0000      -0.072907        -1.9839 
 140   0.0000      -0.067167        -1.8277 
 141   0.0000      -0.060882        -1.6567 
 142   0.0000      -0.056849        -1.5469 
 143   0.0000      -0.054362        -1.4793 
 144   0.0000      -0.051840        -1.4106 
 145   0.0000      -0.050368        -1.3706 
 146   0.0000      -0.047929        -1.3042 
 147   0.0000      -0.043751        -1.1905 
 148   0.0000      -0.042650        -1.1606 
 149   0.0000      -0.036842        -1.0025 
 150   0.0000      -0.031322        -0.8523 
 151   0.0000      -0.027475        -0.7476 
 152   0.0000      -0.020622        -0.5611 
 153   0.0000      -0.013138        -0.3575 
 154   0.0000      -0.002207        -0.0601 
 155   0.0000      -0.000796        -0.0217 
 156   0.0000       0.011991         0.3263 
 157   0.0000       0.025932         0.7056 
 158   0.0000       0.034616         0.9420 
 159   0.0000       0.045783         1.2458 
 160   0.0000       0.055922         1.5217 
 161   0.0000       0.066840         1.8188 
 162   0.0000       0.092977         2.5300 
 163   0.0000       0.094981         2.5846 
 164   0.0000       0.112942         3.0733 
 165   0.0000       0.125299         3.4096 
 166   0.0000       0.132753         3.6124 
 167   0.0000       0.138880         3.7791 
 168   0.0000       0.143627         3.9083 
 169   0.0000       0.162728         4.4280 
 170   0.0000       0.166275         4.5246 
 171   0.0000       0.169560         4.6140 
 172   0.0000       0.175173         4.7667 
 173   0.0000       0.184677         5.0253 
 174   0.0000       0.189043         5.1441 
 175   0.0000       0.203793         5.5455 
 176   0.0000       0.209232         5.6935 
 177   0.0000       0.209694         5.7061 
 178   0.0000       0.217049         5.9062 
 179   0.0000       0.232903         6.3376 
 180   0.0000       0.233861         6.3637 
 181   0.0000       0.246133         6.6976 
 182   0.0000       0.248720         6.7680 
 183   0.0000       0.249784         6.7970 
 184   0.0000       0.262038         7.1304 
 185   0.0000       0.268224         7.2987 
 186   0.0000       0.269643         7.3373 
 187   0.0000       0.278902         7.5893 
 188   0.0000       0.292015         7.9461 
 189   0.0000       0.300502         8.1771 
 190   0.0000       0.304137         8.2760 
 191   0.0000       0.319278         8.6880 
 192   0.0000       0.322549         8.7770 
 193   0.0000       0.323850         8.8124 
 194   0.0000       0.326389         8.8815 
 195   0.0000       0.333934         9.0868 
 196   0.0000       0.337126         9.1737 
 197   0.0000       0.343337         9.3427 
 198   0.0000       0.346167         9.4197 
 199   0.0000       0.353639         9.6230 
 200   0.0000       0.356545         9.7021 
 201   0.0000       0.363314         9.8863 
 202   0.0000       0.364206         9.9106 
 203   0.0000       0.370194        10.0735 
 204   0.0000       0.372462        10.1352 
 205   0.0000       0.372930        10.1479 
 206   0.0000       0.377214        10.2645 
 207   0.0000       0.380372        10.3505 
 208   0.0000       0.382609        10.4113 
 209   0.0000       0.382888        10.4189 
 210   0.0000       0.385619        10.4932 
 211   0.0000       0.391674        10.6580 
 212   0.0000       0.394710        10.7406 
 213   0.0000       0.395759        10.7691 
 214   0.0000       0.402416        10.9503 
 215   0.0000       0.408467        11.1149 
 216   0.0000       0.413101        11.2411 
 217   0.0000       0.413215        11.2441 
 218   0.0000       0.417467        11.3599 
 219   0.0000       0.418437        11.3862 
 220   0.0000       0.426325        11.6009 
 221   0.0000       0.429583        11.6895 
 222   0.0000       0.430666        11.7190 
 223   0.0000       0.432576        11.7710 
 224   0.0000       0.434046        11.8110 
 225   0.0000       0.439922        11.9709 
 226   0.0000       0.441196        12.0056 
 227   0.0000       0.445539        12.1237 
 228   0.0000       0.449728        12.2377 
 229   0.0000       0.457605        12.4521 
 230   0.0000       0.464138        12.6298 
 231   0.0000       0.465208        12.6589 
 232   0.0000       0.469707        12.7814 
 233   0.0000       0.473290        12.8789 
 234   0.0000       0.479966        13.0605 
 235   0.0000       0.484468        13.1830 
 236   0.0000       0.493808        13.4372 
 237   0.0000       0.496312        13.5053 
 238   0.0000       0.502586        13.6761 
 239   0.0000       0.508871        13.8471 
 240   0.0000       0.518389        14.1061 
 241   0.0000       0.519707        14.1420 
 242   0.0000       0.525471        14.2988 
 243   0.0000       0.532975        14.5030 
 244   0.0000       0.553834        15.0706 
 245   0.0000       0.564472        15.3601 
 246   0.0000       0.564846        15.3702 
 247   0.0000       0.579868        15.7790 
 248   0.0000       0.589358        16.0372 
 249   0.0000       0.590667        16.0729 
 250   0.0000       0.600983        16.3536 
 251   0.0000       0.607738        16.5374 
 252   0.0000       0.621096        16.9009 
 253   0.0000       0.645424        17.5629 
 254   0.0000       0.647545        17.6206 
 255   0.0000       0.658774        17.9262 
 256   0.0000       0.661612        18.0034 
 257   0.0000       0.681885        18.5550 
 258   0.0000       0.685345        18.6492 
 259   0.0000       0.692700        18.8493 
 260   0.0000       0.719663        19.5830 
 261   0.0000       0.738435        20.0938 
 262   0.0000       0.745814        20.2946 
 263   0.0000       0.749241        20.3879 
 264   0.0000       0.766401        20.8548 
 265   0.0000       0.775877        21.1127 
 266   0.0000       0.778562        21.1858 
 267   0.0000       0.785872        21.3847 
 268   0.0000       0.809659        22.0319 
 269   0.0000       0.810457        22.0537 
 270   0.0000       0.830352        22.5950 
 271   0.0000       0.844305        22.9747 
 272   0.0000       0.847496        23.0615 
 273   0.0000       0.867902        23.6168 
 274   0.0000       0.877179        23.8693 
 275   0.0000       0.879020        23.9194 
 276   0.0000       0.904702        24.6182 
 277   0.0000       0.913801        24.8658 
 278   0.0000       0.924512        25.1573 
 279   0.0000       0.929951        25.3052 
 280   0.0000       0.942648        25.6508 
 281   0.0000       0.946295        25.7500 
 282   0.0000       0.957925        26.0665 
 283   0.0000       0.970299        26.4032 
 284   0.0000       0.972961        26.4756 
 285   0.0000       0.981767        26.7152 
 286   0.0000       0.988939        26.9104 
 287   0.0000       0.998298        27.1651 
 288   0.0000       1.005440        27.3594 
 289   0.0000       1.025688        27.9104 
 290   0.0000       1.038726        28.2652 
 291   0.0000       1.051578        28.6149 
 292   0.0000       1.056718        28.7548 
 293   0.0000       1.065777        29.0013 
 294   0.0000       1.075948        29.2780 
 295   0.0000       1.090378        29.6707 
 296   0.0000       1.093319        29.7507 
 297   0.0000       1.098733        29.8981 
 298   0.0000       1.115366        30.3506 
 299   0.0000       1.130273        30.7563 
 300   0.0000       1.161793        31.6140 
 301   0.0000       1.163102        31.6496 
 302   0.0000       1.174734        31.9661 
 303   0.0000       1.192833        32.4586 
 304   0.0000       1.198368        32.6093 
 305   0.0000       1.204598        32.7788 
 306   0.0000       1.220830        33.2205 
 307   0.0000       1.224755        33.3273 
 308   0.0000       1.230608        33.4865 
 309   0.0000       1.233386        33.5621 
 310   0.0000       1.239372        33.7250 
 311   0.0000       1.248115        33.9629 
 312   0.0000       1.248757        33.9804 
 313   0.0000       1.252039        34.0697 
 314   0.0000       1.263702        34.3871 
 315   0.0000       1.275633        34.7117 
 316   0.0000       1.277129        34.7524 
 317   0.0000       1.285089        34.9690 
 318   0.0000       1.289740        35.0956 
 319   0.0000       1.306926        35.5633 
 320   0.0000       1.322165        35.9779 
 321   0.0000       1.326019        36.0828 
 322   0.0000       1.336809        36.3764 
 323   0.0000       1.351581        36.7784 
 324   0.0000       1.353873        36.8408 
 325   0.0000       1.368501        37.2388 
 326   0.0000       1.373437        37.3731 
 327   0.0000       1.383169        37.6380 
 328   0.0000       1.400222        38.1020 
 329   0.0000       1.408979        38.3403 
 330   0.0000       1.418695        38.6047 
 331   0.0000       1.419810        38.6350 
 332   0.0000       1.432909        38.9914 
 333   0.0000       1.448249        39.4089 
 334   0.0000       1.450496        39.4700 
 335   0.0000       1.454234        39.5717 
 336   0.0000       1.456060        39.6214 
 337   0.0000       1.458523        39.6884 
 338   0.0000       1.459261        39.7085 
 339   0.0000       1.463037        39.8113 
 340   0.0000       1.467190        39.9243 
 341   0.0000       1.470909        40.0255 
 342   0.0000       1.472817        40.0774 
 343   0.0000       1.475921        40.1619 
 344   0.0000       1.482776        40.3484 
 345   0.0000       1.484718        40.4012 
 346   0.0000       1.489217        40.5237 
 347   0.0000       1.489459        40.5302 
 348   0.0000       1.496785        40.7296 
 349   0.0000       1.504352        40.9355 
 350   0.0000       1.512774        41.1647 
 351   0.0000       1.513865        41.1944 
 352   0.0000       1.522808        41.4377 
 353   0.0000       1.524300        41.4783 
 354   0.0000       1.532081        41.6900 
 355   0.0000       1.534804        41.7641 
 356   0.0000       1.539575        41.8940 
 357   0.0000       1.550114        42.1808 
 358   0.0000       1.554983        42.3132 
 359   0.0000       1.559353        42.4321 
 360   0.0000       1.565020        42.5863 
 361   0.0000       1.567423        42.6517 
 362   0.0000       1.570776        42.7430 
 363   0.0000       1.593238        43.3542 
 364   0.0000       1.594276        43.3824 
 365   0.0000       1.597640        43.4740 
 366   0.0000       1.604247        43.6538 
 367   0.0000       1.614248        43.9259 
 368   0.0000       1.616021        43.9742 
 369   0.0000       1.623013        44.1644 
 370   0.0000       1.631609        44.3983 
 371   0.0000       1.637763        44.5658 
 372   0.0000       1.639311        44.6079 
 373   0.0000       1.648702        44.8635 
 374   0.0000       1.653621        44.9973 
 375   0.0000       1.654218        45.0135 
 376   0.0000       1.665955        45.3329 
 377   0.0000       1.671796        45.4919 
 378   0.0000       1.673111        45.5277 
 379   0.0000       1.683394        45.8075 
 380   0.0000       1.687520        45.9198 
 381   0.0000       1.693399        46.0797 
 382   0.0000       1.700852        46.2825 
 383   0.0000       1.718946        46.7749 
 384   0.0000       1.722279        46.8656 
 385   0.0000       1.727676        47.0125 
 386   0.0000       1.737884        47.2902 
 387   0.0000       1.744838        47.4794 
 388   0.0000       1.745657        47.5018 
 389   0.0000       1.750552        47.6349 
 390   0.0000       1.761069        47.9211 
 391   0.0000       1.762808        47.9685 
 392   0.0000       1.784114        48.5482 
 393   0.0000       1.790431        48.7201 
 394   0.0000       1.793725        48.8097 
 395   0.0000       1.799417        48.9646 
 396   0.0000       1.816943        49.4415 
 397   0.0000       1.825364        49.6707 
 398   0.0000       1.831302        49.8323 
 399   0.0000       1.845410        50.2162 
 400   0.0000       1.851003        50.3683 
 401   0.0000       1.860862        50.6366 
 402   0.0000       1.862917        50.6925 
 403   0.0000       1.884862        51.2897 
 404   0.0000       1.886064        51.3224 
 405   0.0000       1.895438        51.5775 
 406   0.0000       1.899902        51.6990 
 407   0.0000       1.908543        51.9341 
 408   0.0000       1.933357        52.6093 
 409   0.0000       1.944441        52.9109 
 410   0.0000       1.955408        53.2093 
 411   0.0000       1.963428        53.4276 
 412   0.0000       1.977706        53.8161 
 413   0.0000       1.991276        54.1854 
 414   0.0000       1.995268        54.2940 
 415   0.0000       2.017772        54.9064 
 416   0.0000       2.029841        55.2348 
 417   0.0000       2.052054        55.8392 
 418   0.0000       2.059121        56.0315 
 419   0.0000       2.068279        56.2807 
 420   0.0000       2.070030        56.3284 
 421   0.0000       2.073647        56.4268 
 422   0.0000       2.081033        56.6278 
 423   0.0000       2.085672        56.7540 
 424   0.0000       2.093826        56.9759 
 425   0.0000       2.098746        57.1098 
 426   0.0000       2.114521        57.5390 
 427   0.0000       2.118227        57.6399 
 428   0.0000       2.137701        58.1698 
 429   0.0000       2.143626        58.3310 
 430   0.0000       2.146532        58.4101 
 431   0.0000       2.146958        58.4217 
 432   0.0000       2.159534        58.7639 
 433   0.0000       2.169926        59.0467 
 434   0.0000       2.175016        59.1852 
 435   0.0000       2.186321        59.4928 
 436   0.0000       2.216467        60.3131 
 437   0.0000       2.217610        60.3442 
 438   0.0000       2.222042        60.4648 
 439   0.0000       2.243518        61.0492 
 440   0.0000       2.246513        61.1307 
 441   0.0000       2.286755        62.2258 
 442   0.0000       2.287172        62.2371 
 443   0.0000       2.290797        62.3358 
 444   0.0000       2.297395        62.5153 
 445   0.0000       2.306327        62.7584 
 446   0.0000       2.308136        62.8076 
 447   0.0000       2.330481        63.4156 
 448   0.0000       2.334681        63.5299 
 449   0.0000       2.346385        63.8484 
 450   0.0000       2.363291        64.3084 
 451   0.0000       2.363718        64.3200 
 452   0.0000       2.374324        64.6086 
 453   0.0000       2.379611        64.7525 
 454   0.0000       2.387892        64.9778 
 455   0.0000       2.392447        65.1018 
 456   0.0000       2.393521        65.1310 
 457   0.0000       2.406894        65.4949 
 458   0.0000       2.424732        65.9803 
 459   0.0000       2.429136        66.1001 
 460   0.0000       2.433733        66.2253 
 461   0.0000       2.440861        66.4192 
 462   0.0000       2.442712        66.4696 
 463   0.0000       2.473258        67.3008 
 464   0.0000       2.497171        67.9515 
 465   0.0000       2.502181        68.0878 
 466   0.0000       2.507045        68.2202 
 467   0.0000       2.522586        68.6431 
 468   0.0000       2.530833        68.8675 
 469   0.0000       2.539192        69.0949 
 470   0.0000       2.557246        69.5862 
 471   0.0000       2.565884        69.8213 
 472   0.0000       2.571448        69.9726 
 473   0.0000       2.594022        70.5869 
 474   0.0000       2.595944        70.6392 
 475   0.0000       2.606756        70.9334 
 476   0.0000       2.614773        71.1516 
 477   0.0000       2.621664        71.3391 
 478   0.0000       2.632331        71.6294 
 479   0.0000       2.636365        71.7391 
 480   0.0000       2.654232        72.2253 
 481   0.0000       2.658710        72.3472 
 482   0.0000       2.673058        72.7376 
 483   0.0000       2.683480        73.0212 
 484   0.0000       2.689390        73.1820 
 485   0.0000       2.694116        73.3106 
 486   0.0000       2.705876        73.6306 
 487   0.0000       2.707726        73.6810 
 488   0.0000       2.723399        74.1075 
 489   0.0000       2.728100        74.2354 
 490   0.0000       2.732513        74.3555 
 491   0.0000       2.736261        74.4575 
 492   0.0000       2.738211        74.5105 
 493   0.0000       2.742505        74.6274 
 494   0.0000       2.755225        74.9735 
 495   0.0000       2.770365        75.3855 
 496   0.0000       2.776430        75.5505 
 497   0.0000       2.799289        76.1725 
 498   0.0000       2.832970        77.0890 
 499   0.0000       2.833655        77.1077 
 500   0.0000       2.858318        77.7788 
 501   0.0000       2.862387        77.8895 
 502   0.0000       2.875955        78.2587 
 503   0.0000       2.876529        78.2743 
 504   0.0000       2.899246        78.8925 
 505   0.0000       2.902895        78.9918 
 506   0.0000       3.197741        87.0150 
 507   0.0000       3.718168       101.1765 
 508   0.0000       3.731418       101.5371 
 509   0.0000       3.763926       102.4216 
 510   0.0000       3.764832       102.4463 
 511   0.0000       3.829396       104.2032 
 512   0.0000       3.830343       104.2289 
 513   0.0000       4.107850       111.7803 

                 SPIN DOWN ORBITALS
  NO   OCC          E(Eh)            E(eV) 
   0   1.0000    -255.100102     -6941.6267 
   1   1.0000     -29.843403      -812.0803 
   2   1.0000     -25.805359      -702.1995 
   3   1.0000     -25.795490      -701.9310 
   4   1.0000     -25.794157      -701.8947 
   5   1.0000     -18.999259      -516.9961 
   6   1.0000     -14.317823      -389.6078 
   7   1.0000     -14.317672      -389.6037 
   8   1.0000     -14.316247      -389.5649 
   9   1.0000     -14.316159      -389.5625 
  10   1.0000     -14.302479      -389.1902 
  11   1.0000     -10.247529      -278.8494 
  12   1.0000     -10.200238      -277.5626 
  13   1.0000     -10.187951      -277.2282 
  14   1.0000     -10.187696      -277.2213 
  15   1.0000     -10.183597      -277.1098 
  16   1.0000     -10.183564      -277.1089 
  17   1.0000     -10.182421      -277.0778 
  18   1.0000     -10.182239      -277.0728 
  19   1.0000     -10.181567      -277.0545 
  20   1.0000     -10.181479      -277.0521 
  21   1.0000     -10.176820      -276.9253 
  22   1.0000     -10.176736      -276.9231 
  23   1.0000     -10.175767      -276.8967 
  24   1.0000     -10.175584      -276.8917 
  25   1.0000     -10.148330      -276.1501 
  26   1.0000     -10.146793      -276.1083 
  27   1.0000      -3.513984       -95.6204 
  28   1.0000      -2.343055       -63.7578 
  29   1.0000      -2.325543       -63.2812 
  30   1.0000      -2.321857       -63.1809 
  31   1.0000      -1.123223       -30.5645 
  32   1.0000      -1.112609       -30.2756 
  33   1.0000      -1.111985       -30.2586 
  34   1.0000      -1.098777       -29.8993 
  35   1.0000      -1.090955       -29.6864 
  36   1.0000      -1.014108       -27.5953 
  37   1.0000      -0.961324       -26.1590 
  38   1.0000      -0.954350       -25.9692 
  39   1.0000      -0.940205       -25.5843 
  40   1.0000      -0.929398       -25.2902 
  41   1.0000      -0.915793       -24.9200 
  42   1.0000      -0.885646       -24.0997 
  43   1.0000      -0.877561       -23.8797 
  44   1.0000      -0.872852       -23.7515 
  45   1.0000      -0.845972       -23.0201 
  46   1.0000      -0.835124       -22.7249 
  47   1.0000      -0.800202       -21.7746 
  48   1.0000      -0.787424       -21.4269 
  49   1.0000      -0.765744       -20.8370 
  50   1.0000      -0.764673       -20.8078 
  51   1.0000      -0.748647       -20.3717 
  52   1.0000      -0.721964       -19.6457 
  53   1.0000      -0.708958       -19.2917 
  54   1.0000      -0.705594       -19.2002 
  55   1.0000      -0.700125       -19.0514 
  56   1.0000      -0.694687       -18.9034 
  57   1.0000      -0.691743       -18.8233 
  58   1.0000      -0.687072       -18.6962 
  59   1.0000      -0.676212       -18.4007 
  60   1.0000      -0.672096       -18.2887 
  61   1.0000      -0.667612       -18.1667 
  62   1.0000      -0.665412       -18.1068 
  63   1.0000      -0.662062       -18.0156 
  64   1.0000      -0.660271       -17.9669 
  65   1.0000      -0.653656       -17.7869 
  66   1.0000      -0.639169       -17.3927 
  67   1.0000      -0.636937       -17.3319 
  68   1.0000      -0.627401       -17.0725 
  69   1.0000      -0.621561       -16.9135 
  70   1.0000      -0.620161       -16.8754 
  71   1.0000      -0.615157       -16.7393 
  72   1.0000      -0.602902       -16.4058 
  73   1.0000      -0.600251       -16.3337 
  74   1.0000      -0.594727       -16.1833 
  75   1.0000      -0.588331       -16.0093 
  76   1.0000      -0.584267       -15.8987 
  77   1.0000      -0.578519       -15.7423 
  78   1.0000      -0.577899       -15.7254 
  79   1.0000      -0.570666       -15.5286 
  80   1.0000      -0.568795       -15.4777 
  81   1.0000      -0.568198       -15.4615 
  82   1.0000      -0.567158       -15.4332 
  83   1.0000      -0.560824       -15.2608 
  84   1.0000      -0.558594       -15.2001 
  85   1.0000      -0.548237       -14.9183 
  86   1.0000      -0.545308       -14.8386 
  87   1.0000      -0.539878       -14.6908 
  88   1.0000      -0.539643       -14.6844 
  89   1.0000      -0.538444       -14.6518 
  90   1.0000      -0.530373       -14.4322 
  91   1.0000      -0.523169       -14.2362 
  92   1.0000      -0.517132       -14.0719 
  93   1.0000      -0.504601       -13.7309 
  94   1.0000      -0.500074       -13.6077 
  95   1.0000      -0.484430       -13.1820 
  96   1.0000      -0.483125       -13.1465 
  97   1.0000      -0.425846       -11.5879 
  98   0.0000      -0.373422       -10.1613 
  99   0.0000      -0.370414       -10.0795 
 100   0.0000      -0.335674        -9.1342 
 101   0.0000      -0.312785        -8.5113 
 102   0.0000      -0.283005        -7.7010 
 103   0.0000      -0.282041        -7.6747 
 104   0.0000      -0.224974        -6.1219 
 105   0.0000      -0.198202        -5.3934 
 106   0.0000      -0.195064        -5.3080 
 107   0.0000      -0.191937        -5.2229 
 108   0.0000      -0.178869        -4.8673 
 109   0.0000      -0.171919        -4.6782 
 110   0.0000      -0.170287        -4.6338 
 111   0.0000      -0.164157        -4.4669 
 112   0.0000      -0.160066        -4.3556 
 113   0.0000      -0.159756        -4.3472 
 114   0.0000      -0.149301        -4.0627 
 115   0.0000      -0.146878        -3.9968 
 116   0.0000      -0.142015        -3.8644 
 117   0.0000      -0.141441        -3.8488 
 118   0.0000      -0.135265        -3.6808 
 119   0.0000      -0.128878        -3.5070 
 120   0.0000      -0.128068        -3.4849 
 121   0.0000      -0.123987        -3.3738 
 122   0.0000      -0.121978        -3.3192 
 123   0.0000      -0.121036        -3.2936 
 124   0.0000      -0.117163        -3.1882 
 125   0.0000      -0.115151        -3.1334 
 126   0.0000      -0.110423        -3.0048 
 127   0.0000      -0.109267        -2.9733 
 128   0.0000      -0.106094        -2.8870 
 129   0.0000      -0.105192        -2.8624 
 130   0.0000      -0.102194        -2.7808 
 131   0.0000      -0.100754        -2.7417 
 132   0.0000      -0.096425        -2.6239 
 133   0.0000      -0.094838        -2.5807 
 134   0.0000      -0.088959        -2.4207 
 135   0.0000      -0.088204        -2.4002 
 136   0.0000      -0.086173        -2.3449 
 137   0.0000      -0.084253        -2.2926 
 138   0.0000      -0.076588        -2.0841 
 139   0.0000      -0.072857        -1.9825 
 140   0.0000      -0.066504        -1.8097 
 141   0.0000      -0.060628        -1.6498 
 142   0.0000      -0.056691        -1.5426 
 143   0.0000      -0.053518        -1.4563 
 144   0.0000      -0.051237        -1.3942 
 145   0.0000      -0.049782        -1.3546 
 146   0.0000      -0.047849        -1.3020 
 147   0.0000      -0.043651        -1.1878 
 148   0.0000      -0.042344        -1.1522 
 149   0.0000      -0.036777        -1.0008 
 150   0.0000      -0.030784        -0.8377 
 151   0.0000      -0.027411        -0.7459 
 152   0.0000      -0.019472        -0.5298 
 153   0.0000      -0.012925        -0.3517 
 154   0.0000      -0.000628        -0.0171 
 155   0.0000       0.000579         0.0157 
 156   0.0000       0.013164         0.3582 
 157   0.0000       0.026057         0.7090 
 158   0.0000       0.040621         1.1054 
 159   0.0000       0.045825         1.2470 
 160   0.0000       0.059778         1.6267 
 161   0.0000       0.068782         1.8717 
 162   0.0000       0.097320         2.6482 
 163   0.0000       0.098662         2.6847 
 164   0.0000       0.113748         3.0952 
 165   0.0000       0.127821         3.4782 
 166   0.0000       0.133471         3.6319 
 167   0.0000       0.139226         3.7885 
 168   0.0000       0.144376         3.9287 
 169   0.0000       0.165600         4.5062 
 170   0.0000       0.167532         4.5588 
 171   0.0000       0.171088         4.6555 
 172   0.0000       0.176432         4.8010 
 173   0.0000       0.185322         5.0429 
 174   0.0000       0.190299         5.1783 
 175   0.0000       0.204112         5.5542 
 176   0.0000       0.209753         5.7077 
 177   0.0000       0.210404         5.7254 
 178   0.0000       0.217243         5.9115 
 179   0.0000       0.233415         6.3515 
 180   0.0000       0.234588         6.3835 
 181   0.0000       0.246824         6.7164 
 182   0.0000       0.248887         6.7726 
 183   0.0000       0.251313         6.8386 
 184   0.0000       0.262234         7.1358 
 185   0.0000       0.268448         7.3048 
 186   0.0000       0.270087         7.3494 
 187   0.0000       0.279858         7.6153 
 188   0.0000       0.293477         7.9859 
 189   0.0000       0.301288         8.1985 
 190   0.0000       0.305420         8.3109 
 191   0.0000       0.319878         8.7043 
 192   0.0000       0.323197         8.7946 
 193   0.0000       0.324404         8.8275 
 194   0.0000       0.326891         8.8951 
 195   0.0000       0.334723         9.1083 
 196   0.0000       0.337563         9.1856 
 197   0.0000       0.343547         9.3484 
 198   0.0000       0.346547         9.4300 
 199   0.0000       0.353724         9.6253 
 200   0.0000       0.356765         9.7081 
 201   0.0000       0.363793         9.8993 
 202   0.0000       0.364581         9.9208 
 203   0.0000       0.370309        10.0766 
 204   0.0000       0.372657        10.1405 
 205   0.0000       0.373140        10.1536 
 206   0.0000       0.378660        10.3039 
 207   0.0000       0.380626        10.3574 
 208   0.0000       0.383114        10.4251 
 209   0.0000       0.385403        10.4874 
 210   0.0000       0.385975        10.5029 
 211   0.0000       0.392741        10.6870 
 212   0.0000       0.395292        10.7564 
 213   0.0000       0.396137        10.7794 
 214   0.0000       0.402876        10.9628 
 215   0.0000       0.409954        11.1554 
 216   0.0000       0.413502        11.2520 
 217   0.0000       0.413770        11.2593 
 218   0.0000       0.417904        11.3717 
 219   0.0000       0.418920        11.3994 
 220   0.0000       0.426958        11.6181 
 221   0.0000       0.429795        11.6953 
 222   0.0000       0.431051        11.7295 
 223   0.0000       0.433119        11.7858 
 224   0.0000       0.434276        11.8173 
 225   0.0000       0.440335        11.9821 
 226   0.0000       0.441285        12.0080 
 227   0.0000       0.445974        12.1356 
 228   0.0000       0.449948        12.2437 
 229   0.0000       0.457946        12.4613 
 230   0.0000       0.464434        12.6379 
 231   0.0000       0.465356        12.6630 
 232   0.0000       0.469894        12.7865 
 233   0.0000       0.473428        12.8826 
 234   0.0000       0.480728        13.0813 
 235   0.0000       0.485031        13.1984 
 236   0.0000       0.494069        13.4443 
 237   0.0000       0.496811        13.5189 
 238   0.0000       0.504230        13.7208 
 239   0.0000       0.509435        13.8624 
 240   0.0000       0.518827        14.1180 
 241   0.0000       0.520615        14.1667 
 242   0.0000       0.525792        14.3075 
 243   0.0000       0.533261        14.5108 
 244   0.0000       0.554554        15.0902 
 245   0.0000       0.566034        15.4026 
 246   0.0000       0.568487        15.4693 
 247   0.0000       0.580506        15.7964 
 248   0.0000       0.590408        16.0658 
 249   0.0000       0.592287        16.1170 
 250   0.0000       0.601245        16.3607 
 251   0.0000       0.610682        16.6175 
 252   0.0000       0.622575        16.9411 
 253   0.0000       0.646949        17.6044 
 254   0.0000       0.651243        17.7212 
 255   0.0000       0.661247        17.9935 
 256   0.0000       0.663755        18.0617 
 257   0.0000       0.682145        18.5621 
 258   0.0000       0.685636        18.6571 
 259   0.0000       0.693374        18.8677 
 260   0.0000       0.723059        19.6754 
 261   0.0000       0.739758        20.1299 
 262   0.0000       0.750169        20.4131 
 263   0.0000       0.752801        20.4847 
 264   0.0000       0.769027        20.9263 
 265   0.0000       0.780262        21.2320 
 266   0.0000       0.783336        21.3157 
 267   0.0000       0.792987        21.5783 
 268   0.0000       0.811489        22.0818 
 269   0.0000       0.815090        22.1797 
 270   0.0000       0.832563        22.6552 
 271   0.0000       0.848980        23.1019 
 272   0.0000       0.851656        23.1747 
 273   0.0000       0.870626        23.6909 
 274   0.0000       0.880197        23.9514 
 275   0.0000       0.884945        24.0806 
 276   0.0000       0.911314        24.7981 
 277   0.0000       0.915149        24.9025 
 278   0.0000       0.927071        25.2269 
 279   0.0000       0.932348        25.3705 
 280   0.0000       0.947583        25.7850 
 281   0.0000       0.947952        25.7951 
 282   0.0000       0.959085        26.0980 
 283   0.0000       0.971910        26.4470 
 284   0.0000       0.975334        26.5402 
 285   0.0000       0.984066        26.7778 
 286   0.0000       0.991285        26.9742 
 287   0.0000       0.998988        27.1839 
 288   0.0000       1.006328        27.3836 
 289   0.0000       1.028558        27.9885 
 290   0.0000       1.039566        28.2880 
 291   0.0000       1.052293        28.6344 
 292   0.0000       1.059335        28.8260 
 293   0.0000       1.066286        29.0151 
 294   0.0000       1.077559        29.3219 
 295   0.0000       1.091844        29.7106 
 296   0.0000       1.099371        29.9154 
 297   0.0000       1.102701        30.0060 
 298   0.0000       1.118971        30.4488 
 299   0.0000       1.130899        30.7733 
 300   0.0000       1.164499        31.6876 
 301   0.0000       1.166034        31.7294 
 302   0.0000       1.175753        31.9939 
 303   0.0000       1.193214        32.4690 
 304   0.0000       1.200078        32.6558 
 305   0.0000       1.205209        32.7954 
 306   0.0000       1.222091        33.2548 
 307   0.0000       1.225750        33.3544 
 308   0.0000       1.231505        33.5110 
 309   0.0000       1.233748        33.5720 
 310   0.0000       1.240462        33.7547 
 311   0.0000       1.249321        33.9958 
 312   0.0000       1.249770        34.0080 
 313   0.0000       1.252144        34.0726 
 314   0.0000       1.264614        34.4119 
 315   0.0000       1.277414        34.7602 
 316   0.0000       1.279203        34.8089 
 317   0.0000       1.287173        35.0258 
 318   0.0000       1.291593        35.1460 
 319   0.0000       1.310084        35.6492 
 320   0.0000       1.323139        36.0044 
 321   0.0000       1.327406        36.1205 
 322   0.0000       1.337419        36.3930 
 323   0.0000       1.354683        36.8628 
 324   0.0000       1.356803        36.9205 
 325   0.0000       1.370089        37.2820 
 326   0.0000       1.377319        37.4788 
 327   0.0000       1.384359        37.6703 
 328   0.0000       1.402241        38.1569 
 329   0.0000       1.412429        38.4341 
 330   0.0000       1.419063        38.6147 
 331   0.0000       1.420808        38.6622 
 332   0.0000       1.434055        39.0226 
 333   0.0000       1.448615        39.4188 
 334   0.0000       1.450690        39.4753 
 335   0.0000       1.454483        39.5785 
 336   0.0000       1.456364        39.6297 
 337   0.0000       1.459007        39.7016 
 338   0.0000       1.459694        39.7203 
 339   0.0000       1.463948        39.8361 
 340   0.0000       1.468570        39.9618 
[...]
      pz      :     0.000095  p :     0.001268
      px      :     0.000153
      py      :     0.001020
 20 H s       :    -0.002088  s :    -0.002088
      pz      :     0.000306  p :     0.000329
      px      :     0.000035
      py      :    -0.000011
 21 C s       :    -0.000161  s :    -0.000161
      pz      :     0.000069  p :     0.000005
      px      :    -0.000051
      py      :    -0.000013
      dz2     :     0.000027  d :    -0.000117
      dxz     :    -0.000004
      dyz     :    -0.000032
      dx2y2   :    -0.000036
      dxy     :    -0.000072
 22 H s       :    -0.000533  s :    -0.000533
      pz      :    -0.000001  p :     0.000003
      px      :     0.000003
      py      :     0.000002
 23 H s       :     0.000270  s :     0.000270
      pz      :    -0.000002  p :    -0.000004
      px      :    -0.000012
      py      :     0.000010
 24 C s       :    -0.000134  s :    -0.000134
      pz      :     0.003258  p :     0.003405
      px      :    -0.000064
      py      :     0.000212
      dz2     :    -0.000030  d :    -0.000363
      dxz     :    -0.000004
      dyz     :    -0.000030
      dx2y2   :    -0.000165
      dxy     :    -0.000135
 25 H s       :    -0.001458  s :    -0.001458
      pz      :     0.000132  p :     0.000147
      px      :     0.000001
      py      :     0.000014
 26 H s       :     0.000595  s :     0.000595
      pz      :     0.000183  p :     0.000746
      px      :     0.000536
      py      :     0.000027
 27 C s       :    -0.000126  s :    -0.000126
      pz      :     0.002882  p :     0.002813
      px      :    -0.000142
      py      :     0.000073
      dz2     :    -0.000003  d :    -0.000391
      dxz     :    -0.000024
      dyz     :    -0.000030
      dx2y2   :     0.000003
      dxy     :    -0.000336
 28 H s       :    -0.002153  s :    -0.002153
      pz      :     0.000119  p :     0.000165
      px      :     0.000030
      py      :     0.000016
 29 H s       :     0.000364  s :     0.000364
      pz      :     0.000036  p :     0.000452
      px      :     0.000048
      py      :     0.000368
 30 C s       :    -0.000079  s :    -0.000079
      pz      :     0.000104  p :    -0.000792
      px      :    -0.000784
      py      :    -0.000111
      dz2     :     0.000059  d :     0.000140
      dxz     :     0.000036
      dyz     :     0.000045
      dx2y2   :     0.000010
      dxy     :    -0.000010
 31 H s       :     0.000661  s :     0.000661
      pz      :    -0.000011  p :    -0.000026
      px      :    -0.000012
      py      :    -0.000003
 32 H s       :     0.000162  s :     0.000162
      pz      :    -0.000006  p :    -0.000018
      px      :    -0.000009
      py      :    -0.000003
 33 C s       :    -0.000123  s :    -0.000123
      pz      :     0.002991  p :     0.002907
      px      :    -0.000151
      py      :     0.000067
      dz2     :    -0.000004  d :    -0.000387
      dxz     :    -0.000023
      dyz     :    -0.000032
      dx2y2   :     0.000003
      dxy     :    -0.000332
 34 H s       :     0.000371  s :     0.000371
      pz      :     0.000040  p :     0.000472
      px      :     0.000050
      py      :     0.000383
 35 H s       :    -0.002134  s :    -0.002134
      pz      :     0.000122  p :     0.000167
      px      :     0.000030
      py      :     0.000015
 36 C s       :    -0.000007  s :    -0.000007
      pz      :     0.000042  p :    -0.000430
      px      :    -0.000317
      py      :    -0.000156
      dz2     :    -0.000177  d :    -0.000312
      dxz     :     0.000038
      dyz     :     0.000017
      dx2y2   :    -0.000013
      dxy     :    -0.000176
 37 H s       :    -0.001613  s :    -0.001613
      pz      :    -0.000037  p :    -0.000031
      px      :     0.000007
      py      :    -0.000000
 38 H s       :    -0.000126  s :    -0.000126
      pz      :    -0.000004  p :    -0.000015
      px      :    -0.000001
      py      :    -0.000010
 39 H s       :    -0.000156  s :    -0.000156
      pz      :    -0.000002  p :    -0.000011
      px      :    -0.000010
      py      :     0.000001
 40 C s       :    -0.000030  s :    -0.000030
      pz      :     0.000309  p :    -0.000304
      px      :    -0.000240
      py      :    -0.000373
      dz2     :    -0.000093  d :    -0.000236
      dxz     :    -0.000014
      dyz     :     0.000041
      dx2y2   :    -0.000002
      dxy     :    -0.000168
 41 H s       :    -0.001463  s :    -0.001463
      pz      :    -0.000036  p :    -0.000022
      px      :     0.000009
      py      :     0.000005
 42 H s       :    -0.000198  s :    -0.000198
      pz      :     0.000015  p :     0.000000
      px      :    -0.000003
      py      :    -0.000012
 43 H s       :     0.000040  s :     0.000040
      pz      :     0.000000  p :    -0.000010
      px      :    -0.000006
      py      :    -0.000005
 44 C s       :    -0.000021  s :    -0.000021
      pz      :     0.000270  p :    -0.000341
      px      :    -0.000242
      py      :    -0.000369
      dz2     :    -0.000101  d :    -0.000245
      dxz     :    -0.000011
      dyz     :     0.000042
      dx2y2   :    -0.000001
      dxy     :    -0.000173
 45 H s       :    -0.001517  s :    -0.001517
      pz      :    -0.000035  p :    -0.000021
      px      :     0.000010
      py      :     0.000004
 46 H s       :     0.000013  s :     0.000013
      pz      :     0.000001  p :    -0.000011
      px      :    -0.000005
      py      :    -0.000006
 47 H s       :    -0.000190  s :    -0.000190
      pz      :     0.000014  p :    -0.000002
      px      :    -0.000003
      py      :    -0.000012
 48 C s       :     0.000016  s :     0.000016
      pz      :     0.000029  p :    -0.000407
      px      :    -0.000300
      py      :    -0.000136
      dz2     :    -0.000180  d :    -0.000318
      dxz     :     0.000041
      dyz     :     0.000017
      dx2y2   :    -0.000015
      dxy     :    -0.000182
 49 H s       :    -0.001641  s :    -0.001641
      pz      :    -0.000035  p :    -0.000029
      px      :     0.000007
      py      :    -0.000001
 50 H s       :    -0.000160  s :    -0.000160
      pz      :    -0.000002  p :    -0.000010
      px      :    -0.000010
      py      :     0.000001
 51 H s       :    -0.000141  s :    -0.000141
      pz      :    -0.000004  p :    -0.000012
      px      :    -0.000000
      py      :    -0.000008
 52 N s       :    -0.003933  s :    -0.003933
      pz      :    -0.004028  p :    -0.017663
      px      :    -0.006780
      py      :    -0.006856
      dz2     :    -0.000129  d :     0.002445
      dxz     :     0.001275
      dyz     :     0.001301
      dx2y2   :    -0.000003
      dxy     :     0.000001
 53 C s       :     0.000978  s :     0.000978
      pz      :    -0.000142  p :     0.037848
      px      :     0.018768
      py      :     0.019222
      dz2     :    -0.000221  d :    -0.000621
      dxz     :    -0.000198
      dyz     :    -0.000201
      dx2y2   :    -0.000000
      dxy     :     0.000000
 54 C s       :    -0.000257  s :    -0.000257
      pz      :    -0.001121  p :    -0.000934
      px      :     0.000095
      py      :     0.000092
      dz2     :     0.000046  d :     0.000973
      dxz     :     0.000391
      dyz     :     0.000409
      dx2y2   :     0.000063
      dxy     :     0.000065
 55 H s       :     0.001589  s :     0.001589
      pz      :    -0.000024  p :    -0.000042
      px      :    -0.000003
      py      :    -0.000014
 56 H s       :     0.001562  s :     0.001562
      pz      :    -0.000024  p :    -0.000039
      px      :     0.000004
      py      :    -0.000020
 57 H s       :     0.001542  s :     0.001542
      pz      :    -0.000025  p :    -0.000041
      px      :    -0.000026
      py      :     0.000010


                      *****************************
                      * MAYER POPULATION ANALYSIS *
                      *****************************

  NA   - Mulliken gross atomic population
  ZA   - Total nuclear charge
  QA   - Mulliken gross atomic charge
  VA   - Mayer's total valence
  BVA  - Mayer's bonded valence
  FA   - Mayer's free valence

  ATOM       NA         ZA         QA         VA         BVA        FA
  0 Fe    25.6009    26.0000     0.3991     5.9336     5.2347     0.6989
  1 O      8.2879     8.0000    -0.2879     2.5211     2.2298     0.2913
  2 N      7.3886     7.0000    -0.3886     3.3966     3.3962     0.0004
  3 N      7.3786     7.0000    -0.3786     3.3796     3.3792     0.0003
  4 N      7.3794     7.0000    -0.3794     3.3806     3.3803     0.0003
  5 N      7.3880     7.0000    -0.3880     3.3971     3.3967     0.0004
  6 C      5.9024     6.0000     0.0976     3.9622     3.9622     0.0000
  7 H      0.9205     1.0000     0.0795     0.9919     0.9919     0.0000
  8 H      0.9134     1.0000     0.0866     1.0055     1.0055     0.0000
  9 C      5.9343     6.0000     0.0657     4.0300     4.0300     0.0000
 10 H      0.9331     1.0000     0.0669     0.9993     0.9993     0.0000
 11 H      0.9131     1.0000     0.0869     0.9960     0.9960     0.0000
 12 C      5.9399     6.0000     0.0601     3.9729     3.9728     0.0001
 13 H      0.9295     1.0000     0.0705     0.9858     0.9858     0.0000
 14 H      0.9165     1.0000     0.0835     1.0052     1.0052     0.0000
 15 C      6.0205     6.0000    -0.0205     4.1170     4.1170     0.0000
 16 H      0.9083     1.0000     0.0917     0.9844     0.9844     0.0000
 17 H      0.9435     1.0000     0.0565     0.9925     0.9925     0.0000
 18 C      5.9400     6.0000     0.0600     3.9747     3.9746     0.0001
 19 H      0.9169     1.0000     0.0831     1.0047     1.0047     0.0000
 20 H      0.9298     1.0000     0.0702     0.9859     0.9859     0.0000
 21 C      5.9357     6.0000     0.0643     4.0311     4.0311     0.0000
 22 H      0.9126     1.0000     0.0874     0.9958     0.9958     0.0000
 23 H      0.9325     1.0000     0.0675     0.9986     0.9986     0.0000
 24 C      5.9022     6.0000     0.0978     3.9630     3.9629     0.0000
 25 H      0.9202     1.0000     0.0798     0.9920     0.9919     0.0000
 26 H      0.9133     1.0000     0.0867     1.0053     1.0053     0.0000
 27 C      5.9409     6.0000     0.0591     4.0176     4.0175     0.0000
 28 H      0.9308     1.0000     0.0692     0.9866     0.9866     0.0000
 29 H      0.9279     1.0000     0.0721     0.9990     0.9990     0.0000
 30 C      5.9702     6.0000     0.0298     4.0608     4.0608     0.0000
 31 H      0.9558     1.0000     0.0442     1.0037     1.0037     0.0000
 32 H      0.9131     1.0000     0.0869     0.9858     0.9858     0.0000
 33 C      5.9396     6.0000     0.0604     4.0153     4.0153     0.0000
 34 H      0.9277     1.0000     0.0723     0.9995     0.9995     0.0000
 35 H      0.9310     1.0000     0.0690     0.9865     0.9865     0.0000
 36 C      5.9246     6.0000     0.0754     3.8841     3.8841     0.0000
 37 H      0.9153     1.0000     0.0847     0.9950     0.9950     0.0000
 38 H      0.9471     1.0000     0.0529     1.0137     1.0137    -0.0000
 39 H      0.9380     1.0000     0.0620     1.0118     1.0118    -0.0000
 40 C      5.9215     6.0000     0.0785     3.9089     3.9089     0.0000
 41 H      0.9182     1.0000     0.0818     0.9965     0.9965     0.0000
 42 H      0.9495     1.0000     0.0505     1.0239     1.0239     0.0000
 43 H      0.9415     1.0000     0.0585     0.9994     0.9994     0.0000
 44 C      5.9231     6.0000     0.0769     3.9077     3.9077     0.0000
 45 H      0.9178     1.0000     0.0822     0.9963     0.9963     0.0000
 46 H      0.9395     1.0000     0.0605     0.9997     0.9997     0.0000
 47 H      0.9496     1.0000     0.0504     1.0244     1.0244     0.0000
 48 C      5.9272     6.0000     0.0728     3.8825     3.8825     0.0000
 49 H      0.9149     1.0000     0.0851     0.9951     0.9951     0.0000
 50 H      0.9372     1.0000     0.0628     1.0122     1.0122    -0.0000
 51 H      0.9456     1.0000     0.0544     1.0140     1.0140     0.0000
 52 N      6.9190     7.0000     0.0810     3.3870     3.3866     0.0004
 53 C      6.2705     6.0000    -0.2705     4.1527     4.1518     0.0009
 54 C      5.9511     6.0000     0.0489     3.9914     3.9914     0.0000
 55 H      0.8702     1.0000     0.1298     0.9899     0.9899     0.0000
 56 H      0.8682     1.0000     0.1318     0.9885     0.9885     0.0000
 57 H      0.8722     1.0000     0.1278     0.9898     0.9898     0.0000

  Mayer bond orders larger than 0.1
B(  0-Fe,  1-O ) :   1.9195 B(  0-Fe,  2-N ) :   0.6022 B(  0-Fe,  3-N ) :   0.5739 
B(  0-Fe,  4-N ) :   0.5764 B(  0-Fe,  5-N ) :   0.6041 B(  0-Fe, 52-N ) :   0.4943 
B(  2-N ,  6-C ) :   0.8836 B(  2-N , 33-C ) :   0.8957 B(  2-N , 36-C ) :   0.9176 
B(  3-N ,  9-C ) :   0.9254 B(  3-N , 12-C ) :   0.8749 B(  3-N , 40-C ) :   0.9331 
B(  4-N , 18-C ) :   0.8748 B(  4-N , 21-C ) :   0.9254 B(  4-N , 44-C ) :   0.9322 
B(  5-N , 24-C ) :   0.8840 B(  5-N , 27-C ) :   0.8965 B(  5-N , 48-C ) :   0.9159 
B(  6-C ,  7-H ) :   0.9240 B(  6-C ,  8-H ) :   0.9157 B(  6-C ,  9-C ) :   1.1093 
B(  9-C , 10-H ) :   0.9287 B(  9-C , 11-H ) :   0.9083 B( 12-C , 13-H ) :   0.9258 
B( 12-C , 14-H ) :   0.9186 B( 12-C , 15-C ) :   1.0970 B( 15-C , 16-H ) :   0.9033 
B( 15-C , 17-H ) :   0.9326 B( 15-C , 18-C ) :   1.0972 B( 18-C , 19-H ) :   0.9190 
B( 18-C , 20-H ) :   0.9259 B( 21-C , 22-H ) :   0.9081 B( 21-C , 23-H ) :   0.9289 
B( 21-C , 24-C ) :   1.1088 B( 24-C , 25-H ) :   0.9243 B( 24-C , 26-H ) :   0.9156 
B( 27-C , 28-H ) :   0.9253 B( 27-C , 29-H ) :   0.9297 B( 27-C , 30-C ) :   1.0953 
B( 30-C , 31-H ) :   0.9220 B( 30-C , 32-H ) :   0.8943 B( 30-C , 33-C ) :   1.0952 
B( 33-C , 34-H ) :   0.9297 B( 33-C , 35-H ) :   0.9257 B( 36-C , 37-H ) :   0.9469 
B( 36-C , 38-H ) :   0.9539 B( 36-C , 39-H ) :   0.9567 B( 40-C , 41-H ) :   0.9421 
B( 40-C , 42-H ) :   0.9560 B( 40-C , 43-H ) :   0.9536 B( 44-C , 45-H ) :   0.9416 
B( 44-C , 46-H ) :   0.9537 B( 44-C , 47-H ) :   0.9557 B( 48-C , 49-H ) :   0.9469 
B( 48-C , 50-H ) :   0.9565 B( 48-C , 51-H ) :   0.9537 B( 52-N , 53-C ) :   2.6805 
B( 53-C , 54-C ) :   1.1846 B( 54-C , 55-H ) :   0.9096 B( 54-C , 56-H ) :   0.9066 
B( 54-C , 57-H ) :   0.9086 

-------
TIMINGS
-------

Total SCF time: 0 days 0 hours 3 min 32 sec 

Total time                  ....     212.010 sec
Sum of individual times     ....     211.190 sec  ( 99.6%)

Fock matrix formation       ....     193.325 sec  ( 91.2%)
  Split-RI-J                ....     120.625 sec  ( 62.4% of F)
  XC integration            ....      72.259 sec  ( 37.4% of F)
    Basis function eval.    ....      15.914 sec  ( 22.0% of XC)
    Density eval.           ....      24.655 sec  ( 34.1% of XC)
    XC-Functional eval.     ....       2.015 sec  (  2.8% of XC)
    XC-Potential eval.      ....      28.777 sec  ( 39.8% of XC)
Diagonalization             ....       3.203 sec  (  1.5%)
Density matrix formation    ....       0.491 sec  (  0.2%)
Population analysis         ....       0.099 sec  (  0.0%)
Initial guess               ....       3.708 sec  (  1.7%)
Orbital Transformation      ....       0.000 sec  (  0.0%)
Orbital Orthonormalization  ....       0.000 sec  (  0.0%)
DIIS solution               ....       1.268 sec  (  0.6%)
Grid generation             ....       9.096 sec  (  4.3%)

-------------------------   --------------------
FINAL SINGLE POINT ENERGY     -2242.313957943472
-------------------------   --------------------


                            ***************************************
                            *     ORCA property calculations      *
                            ***************************************

                                    ---------------------
                                    Active property flags
                                    ---------------------
   (+) Dipole Moment
   (+) Nuclear properties (Hyperfine,Quadrupole)


------------------------------------------------------------------------------
                       ORCA ELECTRIC PROPERTIES CALCULATION
------------------------------------------------------------------------------

Dipole Moment Calculation                       ... on
Quadrupole Moment Calculation                   ... off
Polarizability Calculation                      ... off
GBWName                                         ... moess.gbw
Electron density file                           ... moess.scfp.tmp
The origin for moment calculation is the CENTER OF MASS  = ( 0.000055, -0.009215  0.009956)

-------------
DIPOLE MOMENT
-------------
                                X             Y             Z
Electronic contribution:      0.01619      -1.38411       3.89471
Nuclear contribution   :     -0.01317       1.33479      -6.39450
                        -----------------------------------------
Total Dipole Moment    :      0.00301      -0.04932      -2.49979
                        -----------------------------------------
Magnitude (a.u.)       :      2.50028
Magnitude (Debye)      :      6.35520



--------------------
Rotational spectrum 
--------------------
 
Rotational constants in cm-1:     0.009961     0.009065     0.008405 
Rotational constants in MHz :   298.636605   271.753690   251.979874 

 Dipole components along the rotational axes: 
x,y,z [a.u.] :     0.212385     0.155891    -2.486359 
x,y,z [Debye]:     0.539840     0.396243    -6.319822 

 
------------------------------------------------------------------------------
                                ORCA EPR/NMR CALCULATION
------------------------------------------------------------------------------

GBWName                      ... moess.gbw
Electron density file        ... moess.scfp.tmp
Spin density file            ... moess.scfr.tmp
Multiplicity                 ... 3
g-tensor                     ... 0
NMR chemical shifts          ... 0
Number of nuclei for epr/nmr ... 1
   Nucleus:   0Fe
       Hyperfine : Isotope=   57 I=   0.500 P=  17.280
       Quadrupole: Isotope=   57 I=   0.500 Q=   0.160
       Spin-Orbit: Zeff=  13.910
       Ncuelar Spin-Spin: Gn=   0.000
       rho(0)=Y f(grad)=Y a(iso)=N a(dip)=N a(orb)=N sigma(nmr)=N spin-spin(nmr)=all-N,DSO-N,PSO-N,FC-N,SD-N

-----------------------------------------
ELECTRIC AND MAGNETIC HYPERFINE STRUCTURE
-----------------------------------------

 -----------------------------------------------------------
 Nucleus   0Fe: A:ISTP=   57 I=  0.5 P= 17.2798 MHz/au**3
                Q:ISTP=   57 I=  0.5 Q=  0.1600 barn     
 -----------------------------------------------------------
 Raw EFG matrix (all values in a.u.**-3):
            -0.2095       0.0017       0.0072
             0.0017      -0.3387      -0.0180
             0.0072      -0.0180       0.5482

 V(El)      -0.2521      -0.2301       0.4822
 V(Nuc)      0.0425      -0.1090       0.0664
         ----------   ----------   ----------
 V(Tot)     -0.2096      -0.3391       0.5486 
 Orientation: 
  X       0.9998541   -0.0142172    0.0094636
  Y       0.0144071    0.9996899   -0.0203091
  Z      -0.0091720    0.0204425    0.9997490

Note: Tensor is right-handed

Moessbauer quadrupole splitting parameter (proper coordinate system)
 e**2qQ  =   20.626 MHz =    1.778 mm/s
 eta     =  0.236
 Delta-EQ=(1/2{e**2qQ}*sqrt(1+1/3*eta**2) =   10.408 MHz =    0.897 mm/s
 RHO(0)=  11189.968014176 a.u.**-3


------------------------------------------------------------------------------- 

Timings for individual modules:

Sum of individual times         ...      212.947 sec (=   3.549 min)
GTO integral calculation        ...        0.547 sec (=   0.009 min)   0.3 %
SCF iterations                  ...      212.036 sec (=   3.534 min)  99.6 %
EPR/NMR calculation             ...        0.364 sec (=   0.006 min)   0.2 %
                             ****ORCA TERMINATED NORMALLY****
TOTAL RUN TIME: 0 days 0 hours 3 minutes 33 seconds 196 msec
