
                                 *****************
                                 * O   R   C   A *
                                 *****************

           --- An Ab Initio, DFT and Semiempirical electronic structure package ---

                  #######################################################
                  #                        -***-                        #
                  #          Department of theory and spectroscopy      #
                  #               Directorship: Frank Neese             #
                  #        Max Planck Institute fuer Kohlenforschung    #
                  #                Kaiser Wilhelm Platz 1               #
                  #                 D-45470 Muelheim/Ruhr               #
                  #                      Germany                        #
                  #                                                     #
                  #                  All rights reserved                #
                  #                        -***-                        #
                  #######################################################


                         Program Version 4.1.2  - RELEASE  -


 With contributions from (in alphabetic order):
   Daniel Aravena         : Magnetic Properties
   Michael Atanasov       : Ab Initio Ligand Field Theory
   Alexander A. Auer      : GIAO ZORA
   Ute Becker             : Parallelization
   Giovanni Bistoni       : ED, Open-shell LED
   Martin Brehm           : Molecular dynamics
   Dmytro Bykov           : SCF Hessian
   Vijay G. Chilkuri      : MRCI spin determinant printing
   Dipayan Datta          : RHF DLPNO-CCSD density
   Achintya Kumar Dutta   : EOM-CC, STEOM-CC
   Dmitry Ganyushin       : Spin-Orbit,Spin-Spin,Magnetic field MRCI
   Miquel Garcia          : C-PCM Hessian
   Yang Guo               : DLPNO-NEVPT2, CIM, IAO-localization
   Andreas Hansen         : Spin unrestricted coupled pair/coupled cluster methods
   Benjamin Helmich-Paris : CASSCF linear response (MC-RPA)
   Lee Huntington         : MR-EOM, pCC
   Robert Izsak           : Overlap fitted RIJCOSX, COSX-SCS-MP3, EOM
   Christian Kollmar      : KDIIS, OOCD, Brueckner-CCSD(T), CCSD density
   Simone Kossmann        : Meta GGA functionals, TD-DFT gradient, OOMP2, MP2 Hessian
   Martin Krupicka        : AUTO-CI
   Lucas Lang             : DCDCAS
   Dagmar Lenk            : GEPOL surface, SMD
   Dimitrios Liakos       : Extrapolation schemes; parallel MDCI
   Dimitrios Manganas     : ROCIS; embedding schemes
   Dimitrios Pantazis     : SARC Basis sets
   Taras Petrenko         : DFT Hessian,TD-DFT gradient, ASA, ECA, R-Raman, ABS, FL, XAS/XES, NRVS
   Peter Pinski           : DLPNO-MP2, DLPNO-MP2 Gradient
   Christoph Reimann      : Effective Core Potentials
   Marius Retegan         : Local ZFS, SOC
   Christoph Riplinger    : Optimizer, TS searches, QM/MM, DLPNO-CCSD(T), (RO)-DLPNO pert. Triples
   Tobias Risthaus        : Range-separated hybrids, TD-DFT gradient, RPA, STAB
   Michael Roemelt        : Restricted open shell CIS
   Masaaki Saitow         : Open-shell DLPNO
   Barbara Sandhoefer     : DKH picture change effects
   Avijit Sen             : IP-ROCIS
   Kantharuban Sivalingam : CASSCF convergence, NEVPT2, FIC-MRCI
   Bernardo de Souza      : ESD, SOC TD-DFT
   Georgi Stoychev        : AutoAux, RI-MP2 NMR
   Willem Van den Heuvel  : Paramagnetic NMR
   Boris Wezisla          : Elementary symmetry handling
   Frank Wennmohs         : Technical directorship


 We gratefully acknowledge several colleagues who have allowed us to
 interface, adapt or use parts of their codes:
   Stefan Grimme, W. Hujo, H. Kruse,             : VdW corrections, initial TS optimization,
                  C. Bannwarth                     DFT functionals, gCP, sTDA/sTD-DF
   Ed Valeev                                     : LibInt (2-el integral package), F12 methods
   Garnet Chan, S. Sharma, J. Yang, R. Olivares  : DMRG
   Ulf Ekstrom                                   : XCFun DFT Library
   Mihaly Kallay                                 : mrcc  (arbitrary order and MRCC methods)
   Andreas Klamt, Michael Diedenhofen            : otool_cosmo (COSMO solvation model)
   Jiri Pittner, Ondrej Demel                    : Mk-CCSD
   Frank Weinhold                                : gennbo (NPA and NBO analysis)
   Christopher J. Cramer and Donald G. Truhlar   : smd solvation model
   Lars Goerigk                                  : TD-DFT with DH, B97 family of functionals
   V. Asgeirsson, H. Jonsson                     : NEB implementation
   FAccTs GmbH                                   : IRC, NEB, NEB-TS, Multilevel


 Your calculation uses the libint2 library for the computation of 2-el integrals
 For citations please refer to: http://libint.valeyev.net

 This ORCA versions uses:
   CBLAS   interface :  Fast vector & matrix operations
   LAPACKE interface :  Fast linear algebra routines
   SCALAPACK package :  Parallel linear algebra routines




***************************************
The coordinates will be read from file: geom.xyz
***************************************


----- Orbital basis set information -----
Your calculation utilizes the basis: def2-SVP
   F. Weigend and R. Ahlrichs, Phys. Chem. Chem. Phys. 7, 3297 (2005).

----- AuxJ basis set information -----
Your calculation utilizes the auxiliary basis: def2/J
   F. Weigend, Phys. Chem. Chem. Phys. 8, 1057 (2006).

================================================================================
                                        WARNINGS
                       Please study these warnings very carefully!
================================================================================


WARNING: your system is open-shell and RHF/RKS was chosen
  ===> : WILL SWITCH to UHF/UKS


INFO   : the flag for use of LIBINT has been found!

================================================================================
                                       INPUT FILE
================================================================================
NAME = moess.inp
|  1> ! bp86 def2-svp
|  2> 
|  3> * xyzfile 1 4  geom.xyz
|  4> 
|  5> %eprnmr
|  6> nuclei = all Fe {fgrad, rho}
|  7> end
|  8> 
|  9> 
| 10>                          ****END OF INPUT****
================================================================================

                       ****************************
                       * Single Point Calculation *
                       ****************************

---------------------------------
CARTESIAN COORDINATES (ANGSTROEM)
---------------------------------
  Fe    -0.000012   -0.000009   -0.160746
  N     -1.385327    1.390293    0.079346
  C     -1.217798    2.728560    0.365207
  C     -2.464641    3.428544    0.225698
  C     -3.388268    2.514285   -0.200458
  C     -2.716603    1.245949   -0.259472
  C     -3.345839    0.014807   -0.421668
  C     -2.739430   -1.210954   -0.146680
  C     -3.441868   -2.445525    0.060297
  C     -2.515234   -3.363390    0.472450
  C     -1.241282   -2.699237    0.467420
  N     -1.396020   -1.371111    0.116664
  C     -0.011684   -3.331002    0.627756
  C      1.217681   -2.728590    0.365339
  C      2.464481   -3.428676    0.225953
  C      3.388401   -2.514326   -0.199344
  C      2.716693   -1.246038   -0.259021
  N      1.385292   -1.390347    0.079427
  C      3.345964   -0.014870   -0.420827
  C      2.739504    1.210891   -0.145963
  C      3.441953    2.445427    0.061300
  C      2.515175    3.363436    0.472753
  C      1.241183    2.699340    0.467241
  N      1.395962    1.371166    0.116696
  C      0.011561    3.331137    0.627330
  O      0.000030   -0.000032   -1.798294
  H      2.670136    4.401754    0.735383
  H      4.508556    2.574945   -0.065920
  H     -2.602016    4.485634    0.411228
  H     -4.436405    2.671848   -0.418112
  H     -4.508358   -2.575211   -0.067700
  H     -2.670331   -4.401605    0.735404
  H      4.436569   -2.671916   -0.416828
  H      2.601692   -4.485788    0.411482
  H     -4.404442    0.012686   -0.660975
  H      0.013035    4.387373    0.876378
  H     -0.013165   -4.387233    0.876828
  H      4.404558   -0.012702   -0.660198

----------------------------
CARTESIAN COORDINATES (A.U.)
----------------------------
  NO LB      ZA    FRAG     MASS         X           Y           Z
   0 Fe   26.0000    0    55.850   -0.000023   -0.000017   -0.303766
   1 N     7.0000    0    14.007   -2.617889    2.627273    0.149942
   2 C     6.0000    0    12.011   -2.301305    5.156231    0.690141
   3 C     6.0000    0    12.011   -4.657497    6.479009    0.426507
   4 C     6.0000    0    12.011   -6.402899    4.751310   -0.378811
   5 C     6.0000    0    12.011   -5.133636    2.354502   -0.490331
   6 C     6.0000    0    12.011   -6.322719    0.027981   -0.796837
   7 C     6.0000    0    12.011   -5.176772   -2.288371   -0.277185
   8 C     6.0000    0    12.011   -6.504188   -4.621373    0.113945
   9 C     6.0000    0    12.011   -4.753103   -6.355886    0.892801
  10 C     6.0000    0    12.011   -2.345683   -5.100819    0.883296
  11 N     7.0000    0    14.007   -2.638095   -2.591024    0.220463
  12 C     6.0000    0    12.011   -0.022080   -6.294682    1.186287
  13 C     6.0000    0    12.011    2.301084   -5.156288    0.690391
  14 C     6.0000    0    12.011    4.657194   -6.479259    0.426989
  15 C     6.0000    0    12.011    6.403150   -4.751388   -0.376706
  16 C     6.0000    0    12.011    5.133806   -2.354671   -0.489479
  17 N     7.0000    0    14.007    2.617822   -2.627375    0.150095
  18 C     6.0000    0    12.011    6.322956   -0.028100   -0.795248
  19 C     6.0000    0    12.011    5.176912    2.288252   -0.275830
  20 C     6.0000    0    12.011    6.504349    4.621187    0.115840
  21 C     6.0000    0    12.011    4.752992    6.355973    0.893374
  22 C     6.0000    0    12.011    2.345496    5.101013    0.882958
  23 N     7.0000    0    14.007    2.637986    2.591128    0.220523
  24 C     6.0000    0    12.011    0.021847    6.294937    1.185482
  25 O     8.0000    0    15.999    0.000057   -0.000060   -3.398283
  26 H     1.0000    0     1.008    5.045826    8.318110    1.389672
  27 H     1.0000    0     1.008    8.519936    4.865941   -0.124571
  28 H     1.0000    0     1.008   -4.917098    8.476620    0.777108
  29 H     1.0000    0     1.008   -8.383590    5.049061   -0.790117
  30 H     1.0000    0     1.008   -8.519562   -4.866444   -0.127934
  31 H     1.0000    0     1.008   -5.046194   -8.317828    1.389712
  32 H     1.0000    0     1.008    8.383900   -5.049189   -0.787691
  33 H     1.0000    0     1.008    4.916485   -8.476911    0.777588
  34 H     1.0000    0     1.008   -8.323189    0.023973   -1.249062
  35 H     1.0000    0     1.008    0.024633    8.290933    1.656114
  36 H     1.0000    0     1.008   -0.024878   -8.290669    1.656965
  37 H     1.0000    0     1.008    8.323408   -0.024003   -1.247593

--------------------------------
INTERNAL COORDINATES (ANGSTROEM)
--------------------------------
 Fe     0   0   0     0.000000000000     0.00000000     0.00000000
 N      1   0   0     1.977291447636     0.00000000     0.00000000
 C      2   1   0     1.378673652628   128.50398086     0.00000000
 C      3   2   1     1.436682925348   110.32534338   169.94945803
 C      4   3   2     1.367686108194   106.89676819   357.65843048
 C      2   1   3     1.381277892256   124.88897314   167.02365503
 C      6   2   1     1.392104920714   123.82359267    20.64130678
 C      7   6   2     1.394933799342   123.89386916     5.90576995
 C      8   7   6     1.435417770690   124.85205693   161.59687529
 C      9   8   7     1.367843859360   106.80243325   187.78465150
 C     10   9   8     1.436690017580   106.82483466   357.88165590
 N      8   7   6     1.378314461611   124.29707863   349.51088104
 C     11  10   9     1.391670179937   124.97361877   190.18775059
 C     13  11  10     1.393951650115   124.14894002   166.98205622
 C     14  13  11     1.436683369568   124.96252041   194.99640819
 C     15  14  13     1.367677457264   106.89676575   172.08721147
 C     16  15  14     1.436421746054   106.69688425     2.59136109
 N     14  13  11     1.378670898407   124.45432501     8.61366856
 C     17  16  15     1.392098350441   125.05244145   168.27700787
 C     19  17  16     1.394931532089   123.89787640   196.74384489
 C     20  19  17     1.435434318966   124.85053029   161.60176026
 C     21  20  19     1.367827312410   106.80265933   187.76361444
 C     22  21  20     1.436700906739   106.82437713   357.89188328
 N     20  19  17     1.378326134001   124.29941815   349.50136508
 C     23  22  21     1.391677477009   124.97375527   190.16077019
 O      1   2   3     1.637548000700    96.97593989   260.23525902
 H     22  21  20     1.082169902347   128.31087389   179.29903034
 H     21  20  19     1.081943529179   124.63882593     6.08766851
 H      4   3   2     1.082003946215   124.71815695   178.87599753
 H      5   4   3     1.082030745152   128.27983420   180.21168395
 H      9   8   7     1.081943903678   124.63910699     6.11727012
 H     10   9   8     1.082169243580   128.30885488   179.27798176
 H     16  15  14     1.082030523867   128.28197679   180.22261155
 H     15  14  13     1.082004458820   124.71524720   353.27138914
 H      7   6   2     1.085316843368   117.92375698   178.26749563
 H     25  23  22     1.085201164152   117.84391278   353.37404670
 H     13  11  10     1.085201815289   117.84490425   353.36147821
 H     19  17  16     1.085322271356   117.92402026     9.13491306

---------------------------
INTERNAL COORDINATES (A.U.)
---------------------------
 Fe     0   0   0     0.000000000000     0.00000000     0.00000000
 N      1   0   0     3.736539322976     0.00000000     0.00000000
 C      2   1   0     2.605315631520   128.50398086     0.00000000
 C      3   2   1     2.714937270188   110.32534338   169.94945803
 C      4   3   2     2.584552181655   106.89676819   357.65843048
 C      2   1   3     2.610236931204   124.88897314   167.02365503
 C      6   2   1     2.630697049834   123.82359267    20.64130678
 C      7   6   2     2.636042855706   123.89386916     5.90576995
 C      8   7   6     2.712546474369   124.85205693   161.59687529
 C      9   8   7     2.584850288157   106.80243325   187.78465150
 C     10   9   8     2.714950672564   106.82483466   357.88165590
 N      8   7   6     2.604636858867   124.29707863   349.51088104
 C     11  10   9     2.629875508825   124.97361877   190.18775059
 C     13  11  10     2.634186862645   124.14894002   166.98205622
 C     14  13  11     2.714938109642   124.96252041   194.99640819
 C     15  14  13     2.584535833767   106.89676575   172.08721147
 C     16  15  14     2.714443712851   106.69688425     2.59136109
 N     14  13  11     2.605310426796   124.45432501     8.61366856
 C     17  16  15     2.630684633817   125.05244145   168.27700787
 C     19  17  16     2.636038571220   123.89787640   196.74384489
 C     20  19  17     2.712577746078   124.85053029   161.60176026
 C     21  20  19     2.584819018952   106.80265933   187.76361444
 C     22  21  20     2.714971250093   106.82437713   357.89188328
 N     20  19  17     2.604658916488   124.29941815   349.50136508
 C     23  22  21     2.629889298293   124.97375527   190.16077019
 O      1   2   3     3.094517252474    96.97593989   260.23525902
 H     22  21  20     2.045004745808   128.31087389   179.29903034
 H     21  20  19     2.044576962517   124.63882593     6.08766851
 H      4   3   2     2.044691134169   124.71815695   178.87599753
 H      5   4   3     2.044741776820   128.27983420   180.21168395
 H      9   8   7     2.044577670216   124.63910699     6.11727012
 H     10   9   8     2.045003500918   128.30885488   179.27798176
 H     16  15  14     2.044741358652   128.28197679   180.22261155
 H     15  14  13     2.044692102851   124.71524720   353.27138914
 H      7   6   2     2.050951602498   117.92375698   178.26749563
 H     25  23  22     2.050733000459   117.84391278   353.37404670
 H     13  11  10     2.050734230930   117.84490425   353.36147821
 H     19  17  16     2.050961859908   117.92402026     9.13491306

---------------------
BASIS SET INFORMATION
---------------------
There are 5 groups of distinct atoms

 Group   1 Type Fe  : 14s9p5d1f contracted to 5s3p2d1f pattern {63311/531/41/1}
 Group   2 Type N   : 7s4p1d contracted to 3s2p1d pattern {511/31/1}
 Group   3 Type C   : 7s4p1d contracted to 3s2p1d pattern {511/31/1}
 Group   4 Type O   : 7s4p1d contracted to 3s2p1d pattern {511/31/1}
 Group   5 Type H   : 4s1p contracted to 2s1p pattern {31/1}

Atom   0Fe   basis set group =>   1
Atom   1N    basis set group =>   2
Atom   2C    basis set group =>   3
Atom   3C    basis set group =>   3
Atom   4C    basis set group =>   3
Atom   5C    basis set group =>   3
Atom   6C    basis set group =>   3
Atom   7C    basis set group =>   3
Atom   8C    basis set group =>   3
Atom   9C    basis set group =>   3
Atom  10C    basis set group =>   3
Atom  11N    basis set group =>   2
Atom  12C    basis set group =>   3
Atom  13C    basis set group =>   3
Atom  14C    basis set group =>   3
Atom  15C    basis set group =>   3
Atom  16C    basis set group =>   3
Atom  17N    basis set group =>   2
Atom  18C    basis set group =>   3
Atom  19C    basis set group =>   3
Atom  20C    basis set group =>   3
Atom  21C    basis set group =>   3
Atom  22C    basis set group =>   3
Atom  23N    basis set group =>   2
Atom  24C    basis set group =>   3
Atom  25O    basis set group =>   4
Atom  26H    basis set group =>   5
Atom  27H    basis set group =>   5
Atom  28H    basis set group =>   5
Atom  29H    basis set group =>   5
Atom  30H    basis set group =>   5
Atom  31H    basis set group =>   5
Atom  32H    basis set group =>   5
Atom  33H    basis set group =>   5
Atom  34H    basis set group =>   5
Atom  35H    basis set group =>   5
Atom  36H    basis set group =>   5
Atom  37H    basis set group =>   5
-------------------------------
AUXILIARY BASIS SET INFORMATION
-------------------------------
There are 5 groups of distinct atoms

 Group   1 Type Fe  : 19s5p5d3f3g contracted to 8s5p5d2f3g pattern {121111111/11111/11111/21/111}
 Group   2 Type N   : 12s5p4d2f1g contracted to 6s4p3d1f1g pattern {711111/2111/211/2/1}
 Group   3 Type C   : 12s5p4d2f1g contracted to 6s4p3d1f1g pattern {711111/2111/211/2/1}
 Group   4 Type O   : 12s5p4d2f1g contracted to 6s4p3d1f1g pattern {711111/2111/211/2/1}
 Group   5 Type H   : 5s2p1d contracted to 3s1p1d pattern {311/2/1}

Atom   0Fe   basis set group =>   1
Atom   1N    basis set group =>   2
Atom   2C    basis set group =>   3
Atom   3C    basis set group =>   3
Atom   4C    basis set group =>   3
Atom   5C    basis set group =>   3
Atom   6C    basis set group =>   3
Atom   7C    basis set group =>   3
Atom   8C    basis set group =>   3
Atom   9C    basis set group =>   3
Atom  10C    basis set group =>   3
Atom  11N    basis set group =>   2
Atom  12C    basis set group =>   3
Atom  13C    basis set group =>   3
Atom  14C    basis set group =>   3
Atom  15C    basis set group =>   3
Atom  16C    basis set group =>   3
Atom  17N    basis set group =>   2
Atom  18C    basis set group =>   3
Atom  19C    basis set group =>   3
Atom  20C    basis set group =>   3
Atom  21C    basis set group =>   3
Atom  22C    basis set group =>   3
Atom  23N    basis set group =>   2
Atom  24C    basis set group =>   3
Atom  25O    basis set group =>   4
Atom  26H    basis set group =>   5
Atom  27H    basis set group =>   5
Atom  28H    basis set group =>   5
Atom  29H    basis set group =>   5
Atom  30H    basis set group =>   5
Atom  31H    basis set group =>   5
Atom  32H    basis set group =>   5
Atom  33H    basis set group =>   5
Atom  34H    basis set group =>   5
Atom  35H    basis set group =>   5
Atom  36H    basis set group =>   5
Atom  37H    basis set group =>   5
------------------------------------------------------------------------------
                           ORCA GTO INTEGRAL CALCULATION
                           -- RI-GTO INTEGRALS CHOSEN --
------------------------------------------------------------------------------

                         BASIS SET STATISTICS AND STARTUP INFO

Gaussian basis set:
 # of primitive gaussian shells          ...  389
 # of primitive gaussian functions       ...  757
 # of contracted shells                  ...  197
 # of contracted basis functions         ...  441
 Highest angular momentum                ...    3
 Maximum contraction depth               ...    6
Auxiliary gaussian basis set:
 # of primitive gaussian shells          ...  731
 # of primitive gaussian functions       ... 2049
 # of contracted shells                  ...  458
 # of contracted aux-basis functions     ... 1446
 Highest angular momentum                ...    4
 Maximum contraction depth               ...   12
Ratio of auxiliary to basis functions    ...  3.28
Integral package used                  ... LIBINT
 One Electron integrals                  ... done
 Ordering auxiliary basis shells         ... done
 Integral threshhold             Thresh  ...  1.000e-10
 Primitive cut-off               TCut    ...  1.000e-11
 Pre-screening matrix                    ... done
 Shell pair data                         ... 
 Ordering of the shell pairs             ... done (   0.003 sec) 14912 of 19503 pairs
 Determination of significant pairs      ... done (   0.000 sec)
 Creation of shell pair data             ... done (   0.002 sec)
 Storage of shell pair data              ... done (   0.003 sec)
 Shell pair data done in (   0.007 sec)
 Computing two index integrals           ... done
 Cholesky decomposition of the V-matrix  ... done


Timings:
 Total evaluation time                   ...   0.394 sec (  0.007 min)
 One electron matrix time                ...   0.095 sec (  0.002 min) = 24.2%
 Schwartz matrix evaluation time         ...   0.194 sec (  0.003 min) = 49.2%
 Two index repulsion integral time       ...   0.039 sec (  0.001 min) =  9.8%
 Cholesky decomposition of V             ...   0.040 sec (  0.001 min) = 10.1%
 Three index repulsion integral time     ...   0.000 sec (  0.000 min) =  0.0%

-------------------------------------------------------------------------------
                                 ORCA SCF
-------------------------------------------------------------------------------

------------
SCF SETTINGS
------------
Hamiltonian:
 Density Functional     Method          .... DFT(GTOs)
 Exchange Functional    Exchange        .... B88
   X-Alpha parameter    XAlpha          ....  0.666667
   Becke's b parameter  XBeta           ....  0.004200
 Correlation Functional Correlation     .... P86
 LDA part of GGA corr.  LDAOpt          .... PW91-LDA
 Gradients option       PostSCFGGA      .... off
   Density functional embedding theory  .... OFF
 RI-approximation to the Coulomb term is turned on
   Number of auxiliary basis functions  .... 1446


General Settings:
 Integral files         IntName         .... moess
 Hartree-Fock type      HFTyp           .... UHF
 Total Charge           Charge          ....    1
 Multiplicity           Mult            ....    4
 Number of Electrons    NEL             ....  193
 Basis Dimension        Dim             ....  441
 Nuclear Repulsion      ENuc            ....   2770.1247003709 Eh

Convergence Acceleration:
 DIIS                   CNVDIIS         .... on
   Start iteration      DIISMaxIt       ....    12
   Startup error        DIISStart       ....  0.200000
   # of expansion vecs  DIISMaxEq       ....     5
   Bias factor          DIISBfac        ....   1.050
   Max. coefficient     DIISMaxC        ....  10.000
 Newton-Raphson         CNVNR           .... off
 SOSCF                  CNVSOSCF        .... off
 Level Shifting         CNVShift        .... on
   Level shift para.    LevelShift      ....    0.2500
   Turn off err/grad.   ShiftErr        ....    0.0010
 Zerner damping         CNVZerner       .... off
 Static damping         CNVDamp         .... on
   Fraction old density DampFac         ....    0.7000
   Max. Damping (<1)    DampMax         ....    0.9800
   Min. Damping (>=0)   DampMin         ....    0.0000
   Turn off err/grad.   DampErr         ....    0.1000
 Fernandez-Rico         CNVRico         .... off

SCF Procedure:
 Maximum # iterations   MaxIter         ....   125
 SCF integral mode      SCFMode         .... Direct
   Integral package                     .... LIBINT
 Reset frequency        DirectResetFreq ....    20
 Integral Threshold     Thresh          ....  1.000e-10 Eh
 Primitive CutOff       TCut            ....  1.000e-11 Eh

Convergence Tolerance:
 Convergence Check Mode ConvCheckMode   .... Total+1el-Energy
 Convergence forced     ConvForced      .... 0
 Energy Change          TolE            ....  1.000e-06 Eh
 1-El. energy change                    ....  1.000e-03 Eh
 DIIS Error             TolErr          ....  1.000e-06


Diagonalization of the overlap matrix:
Smallest eigenvalue                        ... 4.476e-04
Time for diagonalization                   ...    0.024 sec
Threshold for overlap eigenvalues          ... 1.000e-08
Number of eigenvalues below threshold      ... 0
Time for construction of square roots      ...    0.014 sec
Total time needed                          ...    0.038 sec

-------------------
DFT GRID GENERATION
-------------------

General Integration Accuracy     IntAcc      ...  4.340
Radial Grid Type                 RadialGrid  ... Gauss-Chebyshev
Angular Grid (max. acc.)         AngularGrid ... Lebedev-110
Angular grid pruning method      GridPruning ... 3 (G Style)
Weight generation scheme         WeightScheme... Becke
Basis function cutoff            BFCut       ...    1.0000e-10
Integration weight cutoff        WCut        ...    1.0000e-14
Grids for H and He will be reduced by one unit

# of grid points (after initial pruning)     ...  54084 (   0.0 sec)
# of grid points (after weights+screening)   ...  48171 (   0.4 sec)
nearest neighbour list constructed           ...    0.0 sec
Grid point re-assignment to atoms done       ...    0.0 sec
Grid point division into batches done        ...    0.0 sec
Reduced shell lists constructed in    0.6 sec

Total number of grid points                  ...    48171
Total number of batches                      ...      771
Average number of points per batch           ...       62
Average number of grid points per atom       ...     1268
Average number of shells per batch           ...    91.42 (46.41%)
Average number of basis functions per batch  ...   195.86 (44.41%)
Average number of large shells per batch     ...    57.69 (63.10%)
Average number of large basis fcns per batch ...   124.91 (63.78%)
Maximum spatial batch extension              ...  17.55, 20.27, 21.65 au
Average spatial batch extension              ...   3.15,  3.20,  3.93 au

Time for grid setup =    0.972 sec

------------------------------
INITIAL GUESS: MODEL POTENTIAL
------------------------------
Loading Hartree-Fock densities                     ... done
Calculating cut-offs                               ... done
Setting up the integral package                    ... done
Initializing the effective Hamiltonian             ... done
Starting the Coulomb interaction                   ... done (   1.1 sec)
Reading the grid                                   ... done
Mapping shells                                     ... done
Starting the XC term evaluation                    ... done (   0.9 sec)
  promolecular density results
     # of electrons  =    194.012185712
     EX              =   -195.444572259
     EC              =     -7.578232530
     EX+EC           =   -203.022804789
Transforming the Hamiltonian                       ... done (   0.0 sec)
Diagonalizing the Hamiltonian                      ... done (   0.0 sec)
Back transforming the eigenvectors                 ... done (   0.0 sec)
Now organizing SCF variables                       ... done
                      ------------------
                      INITIAL GUESS DONE (   3.1 sec)
                      ------------------
--------------
SCF ITERATIONS
--------------
ITER       Energy         Delta-E        Max-DP      RMS-DP      [F,P]     Damp
               ***  Starting incremental Fock matrix formation  ***
  0  -2324.5598218428   0.000000000000 0.37232200  0.00226502  1.1245222 0.7000
  1  -2325.6134727561  -1.053650913355 0.08942744  0.00084836  0.1977440 0.7000
                               ***Turning on DIIS***
  2  -2325.8639273328  -0.250454576704 0.08490560  0.00071072  0.1516818 0.7000
  3  -2325.9910555526  -0.127128219705 0.05506853  0.00047057  0.1417327 0.7000
  4  -2326.0941944715  -0.103138918926 0.03875654  0.00031599  0.1357847 0.7000
  5  -2326.1753264837  -0.081132012181 0.09964964  0.00076466  0.0982975 0.0000
  6  -2326.3625502457  -0.187223762009 0.01928170  0.00017685  0.0267579 0.0000
  7  -2326.3660059547  -0.003455709018 0.02242893  0.00011660  0.0154913 0.0000
  8  -2326.3689490672  -0.002943112539 0.01729969  0.00008793  0.0092186 0.0000
  9  -2326.3702528436  -0.001303776363 0.01109274  0.00007911  0.0089321 0.0000
 10  -2326.3713123177  -0.001059474088 0.01148927  0.00005741  0.0080759 0.0000
 11  -2326.3720661884  -0.000753870760 0.00754892  0.00006338  0.0040271 0.0000
 12  -2326.3725877510  -0.000521562523 0.01020853  0.00004719  0.0069816 0.0000
 13  -2326.3731890341  -0.000601283147 0.00863011  0.00004541  0.0015241 0.0000
 14  -2326.3736147134  -0.000425679309 0.00713401  0.00004812  0.0052671 0.0000
 15  -2326.3741027808  -0.000488067386 0.00679727  0.00004539  0.0048593 0.0000
 16  -2326.3745382074  -0.000435426588 0.00654604  0.00005061  0.0046461 0.0000
 17  -2326.3748710012  -0.000332793825 0.00686339  0.00006417  0.0096375 0.0000
 18  -2326.3751710511  -0.000300049920 0.00732865  0.00008567  0.0147492 0.0000
 19  -2326.3761991927  -0.001028141566 0.01017448  0.00011150  0.0145030 0.0000
               *** Restarting incremental Fock matrix formation ***
                                   *** Resetting DIIS ***
 20  -2326.3776240930  -0.001424900343 0.03693589  0.00030930  0.0205600 0.0000
 21  -2326.3674770108   0.010147082197 0.02494141  0.00018642  0.0809548 0.0000
 22  -2326.3841905149  -0.016713504084 0.02415452  0.00018500  0.0344338 0.0000
 23  -2326.3959973078  -0.011806792833 0.02695278  0.00019324  0.0057175 0.0000
 24  -2326.4047057910  -0.008708483248 0.02872289  0.00019672  0.0183415 0.0000
 25  -2326.4102163781  -0.005510587127 0.02803153  0.00018227  0.0350675 0.0000
 26  -2326.4150718339  -0.004855455760 0.01821659  0.00015407  0.0425143 0.0000
 27  -2326.4184673964  -0.003395562527 0.01624971  0.00012651  0.0483703 0.0000
 28  -2326.4203523570  -0.001884960615 0.01059645  0.00011188  0.0506264 0.0000
 29  -2326.4190519540   0.001300403087 0.01354798  0.00012012  0.0571549 0.0000
 30  -2326.4238406000  -0.004788646038 0.04150619  0.00027025  0.0601099 0.0000
 31  -2326.4396747162  -0.015834116235 0.02216724  0.00014209  0.0131812 0.0000
 32  -2326.4431401705  -0.003465454301 0.01345549  0.00009003  0.0220031 0.0000
 33  -2326.4452461393  -0.002105968781 0.01418271  0.00006718  0.0107694 0.0000
 34  -2326.4462422904  -0.000996151042 0.00875718  0.00005288  0.0111657 0.0000
 35  -2326.4470780853  -0.000835794951 0.00842132  0.00005289  0.0033846 0.0000
 36  -2326.4474774375  -0.000399352151 0.00885490  0.00003502  0.0089352 0.0000
 37  -2326.4478718023  -0.000394364869 0.00763665  0.00003063  0.0048960 0.0000
 38  -2326.4481085066  -0.000236704293 0.00769750  0.00002614  0.0017387 0.0000
 39  -2326.4482717714  -0.000163264815 0.00477329  0.00002960  0.0024599 0.0000
               *** Restarting incremental Fock matrix formation ***
                                   *** Resetting DIIS ***
 40  -2326.4483784055  -0.000106634036 0.01299947  0.00004495  0.0049588 0.0000
 41  -2326.4477593543   0.000619051127 0.00486366  0.00002431  0.0292540 0.0000
 42  -2326.4482089116  -0.000449557249 0.00459050  0.00001649  0.0184313 0.0000
 43  -2326.4483599235  -0.000151011958 0.00416900  0.00001332  0.0143283 0.0000
 44  -2326.4484130468  -0.000053123247 0.00340314  0.00001157  0.0132376 0.0000
 45  -2326.4484535763  -0.000040529457 0.00803200  0.00006362  0.0132527 0.0000
 46  -2326.4482473427   0.000206233508 0.00311110  0.00002952  0.0138296 0.0000
 47  -2326.4484363551  -0.000189012364 0.00303393  0.00001264  0.0171147 0.0000
 48  -2326.4486405197  -0.000204164557 0.00284487  0.00000916  0.0096284 0.0000
 49  -2326.4487272275  -0.000086707859 0.00254979  0.00000719  0.0026627 0.0000
 50  -2326.4487448992  -0.000017671646 0.03781752  0.00010122  0.0002962 0.0000
 51  -2326.4478774128   0.000867486378 0.00006254  0.00000045  0.0220585 0.0000
 52  -2326.4478735582   0.000003854563 0.00003693  0.00000022  0.0223768 0.0000
 53  -2326.4478711437   0.000002414524 0.00003686  0.00000026  0.0225391 0.0000
                 **** Energy Check signals convergence ****

               *****************************************************
               *                     SUCCESS                       *
               *           SCF CONVERGED AFTER  54 CYCLES          *
               *****************************************************

Setting up the final grid:

General Integration Accuracy     IntAcc      ...  4.670
Radial Grid Type                 RadialGrid  ... Gauss-Chebyshev
Angular Grid (max. acc.)         AngularGrid ... Lebedev-302
Angular grid pruning method      GridPruning ... 3 (G Style)
Weight generation scheme         WeightScheme... Becke
Basis function cutoff            BFCut       ...    1.0000e-10
Integration weight cutoff        WCut        ...    1.0000e-14
Grids for H and He will be reduced by one unit

# of grid points (after initial pruning)     ... 205668 (   0.1 sec)
# of grid points (after weights+screening)   ... 179399 (   1.5 sec)
nearest neighbour list constructed           ...    0.0 sec
Grid point re-assignment to atoms done       ...    0.0 sec
Grid point division into batches done        ...    0.6 sec
Reduced shell lists constructed in    2.5 sec

Total number of grid points                  ...   179399
Total number of batches                      ...     2823
Average number of points per batch           ...       63
Average number of grid points per atom       ...     4721
Average number of shells per batch           ...    81.46 (41.35%)
Average number of basis functions per batch  ...   172.91 (39.21%)
Average number of large shells per batch     ...    50.87 (62.45%)
Average number of large basis fcns per batch ...   108.94 (63.00%)
Maximum spatial batch extension              ...  17.34, 17.28, 22.81 au
Average spatial batch extension              ...   2.14,  2.17,  2.47 au

Final grid set up in    4.0 sec
Final integration                            ... done (   5.4 sec)
Change in XC energy                          ...     0.001072800
Integrated number of electrons               ...   193.000189718
Previous integrated no of electrons          ...   193.006782805

----------------
TOTAL SCF ENERGY
----------------

Total Energy       :        -2326.44679768 Eh          -63305.83577 eV

Components:
Nuclear Repulsion  :         2770.12470037 Eh           75378.92529 eV
Electronic Energy  :        -5096.57149805 Eh         -138684.76106 eV
One Electron Energy:        -8675.44285294 Eh         -236070.80164 eV
Two Electron Energy:         3578.87135489 Eh           97386.04058 eV

Virial components:
Potential Energy   :        -4638.98133447 Eh         -126233.09968 eV
Kinetic Energy     :         2312.53453679 Eh           62927.26391 eV
Virial Ratio       :            2.00601602


DFT components:
N(Alpha)           :       98.000094389441 electrons
N(Beta)            :       95.000095328274 electrons
N(Total)           :      193.000189717715 electrons
E(X)               :     -197.081424877440 Eh       
E(C)               :       -7.535312109506 Eh       
E(XC)              :     -204.616736986946 Eh       
DFET-embed. en.    :        0.000000000000 Eh       

---------------
SCF CONVERGENCE
---------------

  Last Energy change         ...    6.6243e-07  Tolerance :   1.0000e-06
  Last MAX-Density change    ...    2.5729e-05  Tolerance :   1.0000e-05
  Last RMS-Density change    ...    1.4619e-07  Tolerance :   1.0000e-06
  Last DIIS Error            ...    2.2691e-02  Tolerance :   1.0000e-06

             **** THE GBW FILE WAS UPDATED (moess.gbw) ****
             **** DENSITY FILE WAS UPDATED (moess.scfp.tmp) ****
             **** ENERGY FILE WAS UPDATED (moess.en.tmp) ****
----------------------
UHF SPIN CONTAMINATION
----------------------

Warning: in a DFT calculation there is little theoretical justification to 
         calculate <S**2> as in Hartree-Fock theory. We will do it anyways
         but you should keep in mind that the values have only limited relevance

Expectation value of <S**2>     :     3.771011
Ideal value S*(S+1) for S=1.5   :     3.750000
Deviation                       :     0.021011

----------------
ORBITAL ENERGIES
----------------
                 SPIN UP ORBITALS
  NO   OCC          E(Eh)            E(eV) 
   0   1.0000    -255.017453     -6939.3777 
   1   1.0000     -29.791645      -810.6719 
   2   1.0000     -25.742226      -700.4816 
   3   1.0000     -25.739641      -700.4112 
   4   1.0000     -25.737317      -700.3480 
   5   1.0000     -18.928169      -515.0617 
   6   1.0000     -14.179836      -385.8530 
   7   1.0000     -14.179695      -385.8491 
   8   1.0000     -14.179180      -385.8351 
   9   1.0000     -14.179094      -385.8328 
  10   1.0000     -10.091337      -274.5992 
  11   1.0000     -10.091332      -274.5991 
  12   1.0000     -10.091251      -274.5969 
  13   1.0000     -10.091231      -274.5964 
  14   1.0000     -10.090461      -274.5754 
  15   1.0000     -10.090452      -274.5752 
  16   1.0000     -10.089995      -274.5627 
  17   1.0000     -10.089976      -274.5622 
  18   1.0000     -10.075746      -274.1750 
  19   1.0000     -10.075633      -274.1719 
  20   1.0000     -10.075111      -274.1577 
  21   1.0000     -10.075080      -274.1569 
  22   1.0000     -10.049712      -273.4666 
  23   1.0000     -10.049649      -273.4649 
  24   1.0000     -10.049593      -273.4633 
  25   1.0000     -10.049585      -273.4631 
  26   1.0000     -10.049390      -273.4578 
  27   1.0000     -10.049329      -273.4562 
  28   1.0000     -10.049251      -273.4540 
  29   1.0000     -10.049168      -273.4518 
  30   1.0000      -3.495488       -95.1171 
  31   1.0000      -2.319285       -63.1110 
  32   1.0000      -2.307996       -62.8038 
  33   1.0000      -2.301666       -62.6315 
  34   1.0000      -1.030298       -28.0358 
  35   1.0000      -1.020131       -27.7592 
  36   1.0000      -1.019856       -27.7517 
  37   1.0000      -1.010205       -27.4891 
  38   1.0000      -0.949964       -25.8498 
  39   1.0000      -0.887714       -24.1559 
  40   1.0000      -0.861338       -23.4382 
  41   1.0000      -0.861290       -23.4369 
  42   1.0000      -0.837745       -22.7962 
  43   1.0000      -0.831047       -22.6139 
  44   1.0000      -0.830783       -22.6068 
  45   1.0000      -0.827228       -22.5100 
  46   1.0000      -0.816229       -22.2107 
  47   1.0000      -0.787162       -21.4198 
  48   1.0000      -0.731706       -19.9107 
  49   1.0000      -0.731501       -19.9052 
  50   1.0000      -0.676754       -18.4154 
  51   1.0000      -0.660885       -17.9836 
  52   1.0000      -0.660350       -17.9690 
  53   1.0000      -0.657991       -17.9048 
  54   1.0000      -0.657778       -17.8990 
  55   1.0000      -0.631423       -17.1819 
  56   1.0000      -0.630256       -17.1501 
  57   1.0000      -0.608178       -16.5494 
  58   1.0000      -0.607871       -16.5410 
  59   1.0000      -0.603828       -16.4310 
  60   1.0000      -0.587690       -15.9919 
  61   1.0000      -0.587225       -15.9792 
  62   1.0000      -0.547559       -14.8998 
  63   1.0000      -0.536774       -14.6064 
  64   1.0000      -0.535895       -14.5825 
  65   1.0000      -0.529474       -14.4077 
  66   1.0000      -0.528515       -14.3816 
  67   1.0000      -0.514438       -13.9986 
  68   1.0000      -0.514202       -13.9922 
  69   1.0000      -0.511242       -13.9116 
  70   1.0000      -0.501902       -13.6575 
  71   1.0000      -0.499930       -13.6038 
  72   1.0000      -0.497592       -13.5402 
  73   1.0000      -0.493164       -13.4197 
  74   1.0000      -0.493011       -13.4155 
  75   1.0000      -0.491174       -13.3655 
  76   1.0000      -0.482538       -13.1305 
  77   1.0000      -0.471902       -12.8411 
  78   1.0000      -0.471521       -12.8307 
  79   1.0000      -0.470486       -12.8026 
  80   1.0000      -0.463496       -12.6124 
  81   1.0000      -0.462444       -12.5837 
  82   1.0000      -0.462136       -12.5753 
  83   1.0000      -0.460978       -12.5438 
  84   1.0000      -0.441391       -12.0109 
  85   1.0000      -0.441371       -12.0103 
  86   1.0000      -0.440454       -11.9854 
  87   1.0000      -0.400736       -10.9046 
  88   1.0000      -0.400277       -10.8921 
  89   1.0000      -0.394528       -10.7356 
  90   1.0000      -0.373920       -10.1749 
  91   1.0000      -0.362036        -9.8515 
  92   1.0000      -0.361790        -9.8448 
  93   1.0000      -0.360780        -9.8173 
  94   1.0000      -0.336364        -9.1529 
  95   1.0000      -0.330389        -8.9903 
  96   1.0000      -0.329236        -8.9590 
  97   1.0000      -0.327253        -8.9050 
  98   0.0000      -0.263519        -7.1707 
  99   0.0000      -0.257947        -7.0191 
 100   0.0000      -0.250336        -6.8120 
 101   0.0000      -0.249906        -6.8003 
 102   0.0000      -0.198623        -5.4048 
 103   0.0000      -0.138150        -3.7593 
 104   0.0000      -0.114979        -3.1288 
 105   0.0000      -0.114445        -3.1142 
 106   0.0000      -0.098781        -2.6880 
 107   0.0000      -0.084332        -2.2948 
 108   0.0000      -0.075667        -2.0590 
 109   0.0000      -0.065438        -1.7807 
 110   0.0000      -0.064021        -1.7421 
 111   0.0000      -0.063212        -1.7201 
 112   0.0000      -0.055889        -1.5208 
 113   0.0000      -0.055640        -1.5140 
 114   0.0000      -0.054875        -1.4932 
 115   0.0000      -0.037839        -1.0297 
 116   0.0000      -0.028393        -0.7726 
 117   0.0000      -0.021342        -0.5808 
 118   0.0000      -0.020925        -0.5694 
 119   0.0000      -0.013446        -0.3659 
 120   0.0000       0.001587         0.0432 
 121   0.0000       0.010688         0.2908 
 122   0.0000       0.011292         0.3073 
 123   0.0000       0.017849         0.4857 
 124   0.0000       0.029885         0.8132 
 125   0.0000       0.032988         0.8976 
 126   0.0000       0.033384         0.9084 
 127   0.0000       0.033833         0.9206 
 128   0.0000       0.057065         1.5528 
 129   0.0000       0.058131         1.5818 
 130   0.0000       0.065287         1.7765 
 131   0.0000       0.066503         1.8096 
 132   0.0000       0.068786         1.8718 
 133   0.0000       0.092492         2.5168 
 134   0.0000       0.092654         2.5212 
 135   0.0000       0.095538         2.5997 
 136   0.0000       0.126138         3.4324 
 137   0.0000       0.150421         4.0932 
 138   0.0000       0.150563         4.0970 
 139   0.0000       0.152748         4.1565 
 140   0.0000       0.160155         4.3580 
 141   0.0000       0.164363         4.4725 
 142   0.0000       0.165332         4.4989 
 143   0.0000       0.167649         4.5620 
 144   0.0000       0.178269         4.8509 
 145   0.0000       0.199835         5.4378 
 146   0.0000       0.201241         5.4760 
 147   0.0000       0.213227         5.8022 
 148   0.0000       0.218502         5.9457 
 149   0.0000       0.219140         5.9631 
 150   0.0000       0.221202         6.0192 
 151   0.0000       0.241029         6.5587 
 152   0.0000       0.243450         6.6246 
 153   0.0000       0.245743         6.6870 
 154   0.0000       0.250869         6.8265 
 155   0.0000       0.252694         6.8762 
 156   0.0000       0.253208         6.8902 
 157   0.0000       0.254481         6.9248 
 158   0.0000       0.255676         6.9573 
 159   0.0000       0.256740         6.9863 
 160   0.0000       0.265715         7.2305 
 161   0.0000       0.269908         7.3446 
 162   0.0000       0.281344         7.6558 
 163   0.0000       0.291661         7.9365 
 164   0.0000       0.294516         8.0142 
 165   0.0000       0.298379         8.1193 
 166   0.0000       0.300753         8.1839 
 167   0.0000       0.310155         8.4398 
 168   0.0000       0.316272         8.6062 
 169   0.0000       0.318231         8.6595 
 170   0.0000       0.318469         8.6660 
 171   0.0000       0.329939         8.9781 
 172   0.0000       0.330544         8.9946 
 173   0.0000       0.332959         9.0603 
 174   0.0000       0.334336         9.0977 
 175   0.0000       0.334909         9.1133 
 176   0.0000       0.349855         9.5200 
 177   0.0000       0.357580         9.7302 
 178   0.0000       0.361358         9.8331 
 179   0.0000       0.367664        10.0046 
 180   0.0000       0.370932        10.0936 
 181   0.0000       0.383807        10.4439 
 182   0.0000       0.391222        10.6457 
 183   0.0000       0.402736        10.9590 
 184   0.0000       0.404274        11.0009 
 185   0.0000       0.418027        11.3751 
 186   0.0000       0.418826        11.3968 
 187   0.0000       0.424531        11.5521 
 188   0.0000       0.430012        11.7012 
 189   0.0000       0.442672        12.0457 
 190   0.0000       0.467660        12.7257 
 191   0.0000       0.468890        12.7591 
 192   0.0000       0.478991        13.0340 
 193   0.0000       0.479021        13.0348 
 194   0.0000       0.479488        13.0475 
 195   0.0000       0.481296        13.0967 
 196   0.0000       0.487735        13.2719 
 197   0.0000       0.489534        13.3209 
 198   0.0000       0.489617        13.3231 
 199   0.0000       0.507737        13.8162 
 200   0.0000       0.515225        14.0200 
 201   0.0000       0.516250        14.0479 
 202   0.0000       0.516596        14.0573 
 203   0.0000       0.519095        14.1253 
 204   0.0000       0.528916        14.3925 
 205   0.0000       0.529062        14.3965 
 206   0.0000       0.547446        14.8968 
 207   0.0000       0.550790        14.9878 
 208   0.0000       0.554605        15.0916 
 209   0.0000       0.555455        15.1147 
 210   0.0000       0.567088        15.4313 
 211   0.0000       0.568011        15.4564 
 212   0.0000       0.569987        15.5101 
 213   0.0000       0.571114        15.5408 
 214   0.0000       0.577362        15.7108 
 215   0.0000       0.580100        15.7853 
 216   0.0000       0.589917        16.0525 
 217   0.0000       0.600169        16.3314 
 218   0.0000       0.605816        16.4851 
 219   0.0000       0.613738        16.7006 
 220   0.0000       0.634034        17.2530 
 221   0.0000       0.648883        17.6570 
 222   0.0000       0.659587        17.9483 
 223   0.0000       0.669471        18.2172 
 224   0.0000       0.672163        18.2905 
 225   0.0000       0.674031        18.3413 
 226   0.0000       0.693792        18.8790 
 227   0.0000       0.736233        20.0339 
 228   0.0000       0.741969        20.1900 
 229   0.0000       0.754807        20.5393 
 230   0.0000       0.763910        20.7870 
 231   0.0000       0.769275        20.9330 
 232   0.0000       0.795950        21.6589 
 233   0.0000       0.802754        21.8441 
 234   0.0000       0.804519        21.8921 
 235   0.0000       0.822220        22.3737 
 236   0.0000       0.843864        22.9627 
 237   0.0000       0.848540        23.0899 
 238   0.0000       0.864427        23.5223 
 239   0.0000       0.875957        23.8360 
 240   0.0000       0.877142        23.8682 
 241   0.0000       0.889868        24.2145 
 242   0.0000       0.895001        24.3542 
 243   0.0000       0.897260        24.4157 
 244   0.0000       0.901911        24.5422 
 245   0.0000       0.912561        24.8320 
 246   0.0000       0.914093        24.8737 
 247   0.0000       0.921393        25.0724 
 248   0.0000       0.948972        25.8228 
 249   0.0000       0.958699        26.0875 
 250   0.0000       0.978505        26.6265 
 251   0.0000       0.979899        26.6644 
 252   0.0000       0.995583        27.0912 
 253   0.0000       0.996233        27.1089 
 254   0.0000       1.009203        27.4618 
 255   0.0000       1.025440        27.9036 
 256   0.0000       1.034288        28.1444 
 257   0.0000       1.038846        28.2684 
 258   0.0000       1.044979        28.4353 
 259   0.0000       1.051001        28.5992 
 260   0.0000       1.053013        28.6540 
 261   0.0000       1.063669        28.9439 
 262   0.0000       1.076195        29.2848 
 263   0.0000       1.081766        29.4363 
 264   0.0000       1.082118        29.4459 
 265   0.0000       1.083747        29.4902 
 266   0.0000       1.085061        29.5260 
 267   0.0000       1.097052        29.8523 
 268   0.0000       1.099257        29.9123 
 269   0.0000       1.103058        30.0157 
 270   0.0000       1.115097        30.3433 
 271   0.0000       1.124942        30.6112 
 272   0.0000       1.133914        30.8554 
 273   0.0000       1.147448        31.2236 
 274   0.0000       1.149631        31.2831 
 275   0.0000       1.154568        31.4174 
 276   0.0000       1.184554        32.2333 
 277   0.0000       1.194364        32.5003 
 278   0.0000       1.210201        32.9312 
 279   0.0000       1.218357        33.1532 
 280   0.0000       1.267961        34.5030 
 281   0.0000       1.297885        35.3172 
 282   0.0000       1.307469        35.5780 
 283   0.0000       1.313880        35.7525 
 284   0.0000       1.322000        35.9734 
 285   0.0000       1.345725        36.6190 
 286   0.0000       1.360996        37.0346 
 287   0.0000       1.366758        37.1914 
 288   0.0000       1.375460        37.4282 
 289   0.0000       1.395714        37.9793 
 290   0.0000       1.399964        38.0950 
 291   0.0000       1.423210        38.7275 
 292   0.0000       1.429492        38.8985 
 293   0.0000       1.445894        39.3448 
 294   0.0000       1.448249        39.4088 
 295   0.0000       1.462390        39.7936 
 296   0.0000       1.468824        39.9687 
 297   0.0000       1.486221        40.4421 
 298   0.0000       1.495972        40.7075 
 299   0.0000       1.498555        40.7778 
 300   0.0000       1.516728        41.2723 
 301   0.0000       1.527283        41.5595 
 302   0.0000       1.544964        42.0406 
 303   0.0000       1.557746        42.3884 
 304   0.0000       1.559677        42.4410 
 305   0.0000       1.562741        42.5243 
 306   0.0000       1.566984        42.6398 
 307   0.0000       1.573709        42.8228 
 308   0.0000       1.577049        42.9137 
 309   0.0000       1.582010        43.0487 
 310   0.0000       1.593639        43.3651 
 311   0.0000       1.595086        43.4045 
 312   0.0000       1.599064        43.5127 
 313   0.0000       1.605185        43.6793 
 314   0.0000       1.610743        43.8306 
 315   0.0000       1.621335        44.1188 
 316   0.0000       1.660373        45.1810 
 317   0.0000       1.664254        45.2866 
 318   0.0000       1.664880        45.3037 
 319   0.0000       1.684607        45.8405 
 320   0.0000       1.694521        46.1103 
 321   0.0000       1.698846        46.2280 
 322   0.0000       1.700072        46.2613 
 323   0.0000       1.704031        46.3690 
 324   0.0000       1.714460        46.6528 
 325   0.0000       1.718647        46.7668 
 326   0.0000       1.718981        46.7758 
 327   0.0000       1.720702        46.8227 
 328   0.0000       1.748112        47.5685 
 329   0.0000       1.753718        47.7211 
 330   0.0000       1.758084        47.8399 
 331   0.0000       1.762324        47.9553 
 332   0.0000       1.789970        48.7076 
 333   0.0000       1.794378        48.8275 
 334   0.0000       1.796240        48.8782 
 335   0.0000       1.798829        48.9486 
 336   0.0000       1.820177        49.5295 
 337   0.0000       1.833608        49.8950 
 338   0.0000       1.857538        50.5462 
 339   0.0000       1.858386        50.5693 
 340   0.0000       1.866373        50.7866 
 341   0.0000       1.867581        50.8194 
 342   0.0000       1.881786        51.2060 
 343   0.0000       1.893365        51.5211 
 344   0.0000       1.926611        52.4258 
 345   0.0000       1.930430        52.5297 
 346   0.0000       1.935491        52.6674 
 347   0.0000       1.940574        52.8057 
 348   0.0000       1.946339        52.9626 
 349   0.0000       1.948728        53.0276 
 350   0.0000       1.951793        53.1110 
 351   0.0000       1.953710        53.1632 
 352   0.0000       1.961364        53.3714 
 353   0.0000       1.975559        53.7577 
 354   0.0000       1.979610        53.8679 
 355   0.0000       1.983553        53.9752 
 356   0.0000       2.010091        54.6974 
 357   0.0000       2.043661        55.6108 
 358   0.0000       2.044062        55.6217 
 359   0.0000       2.046364        55.6844 
 360   0.0000       2.051281        55.8182 
 361   0.0000       2.068092        56.2756 
 362   0.0000       2.068550        56.2881 
 363   0.0000       2.102445        57.2104 
 364   0.0000       2.113168        57.5022 
 365   0.0000       2.120085        57.6904 
 366   0.0000       2.133977        58.0685 
 367   0.0000       2.143625        58.3310 
 368   0.0000       2.147136        58.4265 
 369   0.0000       2.160001        58.7766 
 370   0.0000       2.161145        58.8078 
 371   0.0000       2.161454        58.8162 
 372   0.0000       2.198799        59.8324 
 373   0.0000       2.274181        61.8836 
 374   0.0000       2.276357        61.9428 
 375   0.0000       2.282968        62.1227 
 376   0.0000       2.284019        62.1513 
 377   0.0000       2.340412        63.6858 
 378   0.0000       2.345650        63.8284 
 379   0.0000       2.346372        63.8480 
 380   0.0000       2.351200        63.9794 
 381   0.0000       2.367490        64.4227 
 382   0.0000       2.371459        64.5307 
 383   0.0000       2.371731        64.5381 
 384   0.0000       2.396237        65.2049 
 385   0.0000       2.397603        65.2421 
 386   0.0000       2.410738        65.5995 
 387   0.0000       2.413255        65.6680 
 388   0.0000       2.413591        65.6772 
 389   0.0000       2.439406        66.3796 
 390   0.0000       2.454308        66.7851 
 391   0.0000       2.464118        67.0521 
 392   0.0000       2.465465        67.0887 
 393   0.0000       2.468435        67.1695 
 394   0.0000       2.482389        67.5492 
 395   0.0000       2.485159        67.6246 
 396   0.0000       2.486404        67.6585 
 397   0.0000       2.493170        67.8426 
 398   0.0000       2.496931        67.9449 
 399   0.0000       2.498906        67.9987 
 400   0.0000       2.505670        68.1827 
 401   0.0000       2.506950        68.2176 
 402   0.0000       2.509443        68.2854 
 403   0.0000       2.510605        68.3170 
 404   0.0000       2.512217        68.3609 
 405   0.0000       2.528761        68.8111 
 406   0.0000       2.553265        69.4779 
 407   0.0000       2.607263        70.9472 
 408   0.0000       2.617472        71.2250 
 409   0.0000       2.628157        71.5158 
 410   0.0000       2.647136        72.0322 
 411   0.0000       2.662543        72.4515 
 412   0.0000       2.670033        72.6553 
 413   0.0000       2.706518        73.6481 
 414   0.0000       2.720792        74.0365 
 415   0.0000       2.782320        75.7108 
 416   0.0000       2.792026        75.9749 
 417   0.0000       2.792295        75.9822 
 418   0.0000       2.809763        76.4575 
 419   0.0000       2.853604        77.6505 
 420   0.0000       2.875687        78.2514 
 421   0.0000       2.878263        78.3215 
 422   0.0000       2.914363        79.3039 
 423   0.0000       2.918959        79.4289 
 424   0.0000       3.054355        83.1132 
 425   0.0000       3.066964        83.4563 
 426   0.0000       3.185228        86.6744 
 427   0.0000       3.186243        86.7021 
 428   0.0000       3.208747        87.3144 
 429   0.0000       3.209177        87.3261 
 430   0.0000       3.254372        88.5560 
 431   0.0000       3.284238        89.3687 
 432   0.0000       3.286124        89.4200 
 433   0.0000       3.303631        89.8964 
 434   0.0000       3.790154       103.1353 
 435   0.0000       3.825399       104.0944 
 436   0.0000       3.842931       104.5715 
 437   0.0000       3.847200       104.6876 
 438   0.0000       3.944256       107.3287 
 439   0.0000       3.946914       107.4010 
 440   0.0000       4.044119       110.0461 

                 SPIN DOWN ORBITALS
  NO   OCC          E(Eh)            E(eV) 
   0   1.0000    -255.017194     -6939.3706 
   1   1.0000     -29.761711      -809.8573 
   2   1.0000     -25.717328      -699.8041 
   3   1.0000     -25.717316      -699.8037 
   4   1.0000     -25.716580      -699.7837 
   5   1.0000     -18.908099      -514.5155 
   6   1.0000     -14.178966      -385.8293 
   7   1.0000     -14.178850      -385.8261 
   8   1.0000     -14.178269      -385.8103 
   9   1.0000     -14.178200      -385.8084 
  10   1.0000     -10.091618      -274.6069 
  11   1.0000     -10.091612      -274.6067 
  12   1.0000     -10.091504      -274.6038 
  13   1.0000     -10.091475      -274.6030 
  14   1.0000     -10.090753      -274.5833 
  15   1.0000     -10.090712      -274.5822 
  16   1.0000     -10.090336      -274.5720 
  17   1.0000     -10.090307      -274.5712 
  18   1.0000     -10.073778      -274.1214 
  19   1.0000     -10.073703      -274.1194 
  20   1.0000     -10.073282      -274.1079 
  21   1.0000     -10.073257      -274.1073 
  22   1.0000     -10.049646      -273.4648 
  23   1.0000     -10.049593      -273.4633 
  24   1.0000     -10.049530      -273.4616 
  25   1.0000     -10.049503      -273.4609 
  26   1.0000     -10.049327      -273.4561 
  27   1.0000     -10.049273      -273.4546 
  28   1.0000     -10.049203      -273.4527 
  29   1.0000     -10.049149      -273.4512 
  30   1.0000      -3.428603       -93.2970 
  31   1.0000      -2.248170       -61.1758 
  32   1.0000      -2.243896       -61.0595 
  33   1.0000      -2.241685       -60.9993 
  34   1.0000      -1.029136       -28.0042 
  35   1.0000      -1.019187       -27.7335 
  36   1.0000      -1.018911       -27.7260 
  37   1.0000      -1.009356       -27.4660 
  38   1.0000      -0.905672       -24.6446 
  39   1.0000      -0.885410       -24.0932 
  40   1.0000      -0.859213       -23.3804 
  41   1.0000      -0.859035       -23.3755 
  42   1.0000      -0.836724       -22.7684 
  43   1.0000      -0.830289       -22.5933 
  44   1.0000      -0.830035       -22.5864 
  45   1.0000      -0.826477       -22.4896 
  46   1.0000      -0.812756       -22.1162 
  47   1.0000      -0.787109       -21.4183 
  48   1.0000      -0.730437       -19.8762 
  49   1.0000      -0.730293       -19.8723 
  50   1.0000      -0.676343       -18.4042 
  51   1.0000      -0.659970       -17.9587 
  52   1.0000      -0.658203       -17.9106 
  53   1.0000      -0.657566       -17.8933 
  54   1.0000      -0.657351       -17.8874 
  55   1.0000      -0.631273       -17.1778 
  56   1.0000      -0.628850       -17.1119 
  57   1.0000      -0.607545       -16.5321 
  58   1.0000      -0.607307       -16.5257 
  59   1.0000      -0.601845       -16.3770 
  60   1.0000      -0.586504       -15.9596 
  61   1.0000      -0.586033       -15.9468 
  62   1.0000      -0.545849       -14.8533 
  63   1.0000      -0.535706       -14.5773 
  64   1.0000      -0.533349       -14.5132 
  65   1.0000      -0.525119       -14.2892 
  66   1.0000      -0.524470       -14.2716 
  67   1.0000      -0.512446       -13.9444 
  68   1.0000      -0.512125       -13.9356 
  69   1.0000      -0.510301       -13.8860 
  70   1.0000      -0.499432       -13.5902 
  71   1.0000      -0.497701       -13.5431 
  72   1.0000      -0.492464       -13.4006 
  73   1.0000      -0.492031       -13.3888 
  74   1.0000      -0.491800       -13.3826 
  75   1.0000      -0.487370       -13.2620 
  76   1.0000      -0.479673       -13.0526 
  77   1.0000      -0.470651       -12.8071 
  78   1.0000      -0.470143       -12.7932 
  79   1.0000      -0.463254       -12.6058 
  80   1.0000      -0.457122       -12.4389 
  81   1.0000      -0.447528       -12.1779 
  82   1.0000      -0.438312       -11.9271 
  83   1.0000      -0.436980       -11.8908 
  84   1.0000      -0.436033       -11.8651 
  85   1.0000      -0.411432       -11.1956 
  86   1.0000      -0.410067       -11.1585 
  87   1.0000      -0.396335       -10.7848 
  88   1.0000      -0.395402       -10.7594 
  89   1.0000      -0.377151       -10.2628 
  90   1.0000      -0.359613        -9.7856 
  91   1.0000      -0.352234        -9.5848 
  92   1.0000      -0.349668        -9.5150 
  93   1.0000      -0.337396        -9.1810 
  94   1.0000      -0.328018        -8.9258 
  95   0.0000      -0.321694        -8.7537 
  96   0.0000      -0.263858        -7.1799 
  97   0.0000      -0.260914        -7.0998 
  98   0.0000      -0.243103        -6.6152 
  99   0.0000      -0.241920        -6.5830 
 100   0.0000      -0.236154        -6.4261 
 101   0.0000      -0.230200        -6.2641 
 102   0.0000      -0.193812        -5.2739 
 103   0.0000      -0.136599        -3.7170 
 104   0.0000      -0.113751        -3.0953 
 105   0.0000      -0.113289        -3.0827 
 106   0.0000      -0.098785        -2.6881 
 107   0.0000      -0.082247        -2.2380 
 108   0.0000      -0.072199        -1.9646 
 109   0.0000      -0.062865        -1.7107 
 110   0.0000      -0.060927        -1.6579 
 111   0.0000      -0.059795        -1.6271 
 112   0.0000      -0.054236        -1.4758 
 113   0.0000      -0.053433        -1.4540 
 114   0.0000      -0.053368        -1.4522 
 115   0.0000      -0.037034        -1.0077 
 116   0.0000      -0.028203        -0.7674 
 117   0.0000      -0.020885        -0.5683 
 118   0.0000      -0.020506        -0.5580 
 119   0.0000      -0.011528        -0.3137 
 120   0.0000       0.001640         0.0446 
 121   0.0000       0.010885         0.2962 
 122   0.0000       0.011600         0.3157 
 123   0.0000       0.020966         0.5705 
 124   0.0000       0.033434         0.9098 
 125   0.0000       0.034007         0.9254 
 126   0.0000       0.034468         0.9379 
 127   0.0000       0.039416         1.0726 
 128   0.0000       0.057450         1.5633 
 129   0.0000       0.059963         1.6317 
 130   0.0000       0.066251         1.8028 
 131   0.0000       0.067611         1.8398 
 132   0.0000       0.072010         1.9595 
 133   0.0000       0.092895         2.5278 
 134   0.0000       0.093111         2.5337 
 135   0.0000       0.095496         2.5986 
 136   0.0000       0.128508         3.4969 
 137   0.0000       0.153829         4.1859 
 138   0.0000       0.154718         4.2101 
 139   0.0000       0.158027         4.3001 
 140   0.0000       0.162002         4.4083 
 141   0.0000       0.164783         4.4840 
 142   0.0000       0.166334         4.5262 
 143   0.0000       0.167804         4.5662 
 144   0.0000       0.182361         4.9623 
 145   0.0000       0.202587         5.5127 
 146   0.0000       0.203959         5.5500 
 147   0.0000       0.218620         5.9490 
 148   0.0000       0.220899         6.0110 
 149   0.0000       0.220912         6.0113 
 150   0.0000       0.222578         6.0566 
 151   0.0000       0.241436         6.5698 
 152   0.0000       0.245516         6.6808 
 153   0.0000       0.245935         6.6922 
 154   0.0000       0.253145         6.8884 
 155   0.0000       0.254691         6.9305 
 156   0.0000       0.254937         6.9372 
 157   0.0000       0.255028         6.9397 
 158   0.0000       0.256613         6.9828 
 159   0.0000       0.257734         7.0133 
 160   0.0000       0.268072         7.2946 
 161   0.0000       0.272472         7.4143 
 162   0.0000       0.284887         7.7522 
 163   0.0000       0.295149         8.0314 
 164   0.0000       0.296607         8.0711 
 165   0.0000       0.302460         8.2304 
 166   0.0000       0.303307         8.2534 
 167   0.0000       0.311938         8.4883 
 168   0.0000       0.317099         8.6287 
 169   0.0000       0.318501         8.6669 
 170   0.0000       0.323356         8.7990 
 171   0.0000       0.330124         8.9831 
 172   0.0000       0.333307         9.0697 
 173   0.0000       0.334722         9.1082 
 174   0.0000       0.335361         9.1256 
 175   0.0000       0.336694         9.1619 
 176   0.0000       0.351917         9.5761 
 177   0.0000       0.359758         9.7895 
 178   0.0000       0.363658         9.8956 
 179   0.0000       0.368350        10.0233 
 180   0.0000       0.373923        10.1750 
 181   0.0000       0.384716        10.4687 
 182   0.0000       0.391891        10.6639 
 183   0.0000       0.402929        10.9643 
 184   0.0000       0.405680        11.0391 
 185   0.0000       0.422048        11.4845 
 186   0.0000       0.424108        11.5406 
 187   0.0000       0.427989        11.6462 
 188   0.0000       0.429979        11.7003 
 189   0.0000       0.444020        12.0824 
 190   0.0000       0.469333        12.7712 
 191   0.0000       0.470235        12.7958 
 192   0.0000       0.479371        13.0443 
 193   0.0000       0.481131        13.0922 
 194   0.0000       0.481594        13.1048 
 195   0.0000       0.482787        13.1373 
 196   0.0000       0.489501        13.3200 
 197   0.0000       0.490926        13.3588 
 198   0.0000       0.491108        13.3637 
 199   0.0000       0.508126        13.8268 
 200   0.0000       0.515629        14.0310 
 201   0.0000       0.517723        14.0880 
 202   0.0000       0.517847        14.0913 
 203   0.0000       0.520045        14.1512 
 204   0.0000       0.531169        14.4538 
 205   0.0000       0.534249        14.5377 
 206   0.0000       0.550091        14.9687 
 207   0.0000       0.551592        15.0096 
 208   0.0000       0.557218        15.1627 
 209   0.0000       0.557517        15.1708 
 210   0.0000       0.567909        15.4536 
 211   0.0000       0.569982        15.5100 
 212   0.0000       0.571275        15.5452 
 213   0.0000       0.571609        15.5543 
 214   0.0000       0.577351        15.7105 
 215   0.0000       0.581692        15.8286 
 216   0.0000       0.589907        16.0522 
 217   0.0000       0.602101        16.3840 
 218   0.0000       0.607588        16.5333 
 219   0.0000       0.616486        16.7754 
 220   0.0000       0.643005        17.4971 
 221   0.0000       0.651178        17.7195 
 222   0.0000       0.664563        18.0837 
 223   0.0000       0.671277        18.2664 
 224   0.0000       0.675494        18.3811 
 225   0.0000       0.677506        18.4359 
 226   0.0000       0.695507        18.9257 
 227   0.0000       0.737312        20.0633 
 228   0.0000       0.743755        20.2386 
 229   0.0000       0.766566        20.8593 
 230   0.0000       0.770439        20.9647 
 231   0.0000       0.771803        21.0018 
 232   0.0000       0.796877        21.6841 
 233   0.0000       0.803828        21.8733 
 234   0.0000       0.806169        21.9370 
 235   0.0000       0.826905        22.5012 
 236   0.0000       0.848454        23.0876 
 237   0.0000       0.861499        23.4426 
 238   0.0000       0.865685        23.5565 
 239   0.0000       0.878449        23.9038 
 240   0.0000       0.883892        24.0519 
 241   0.0000       0.891735        24.2653 
 242   0.0000       0.904127        24.6026 
 243   0.0000       0.908529        24.7223 
 244   0.0000       0.914920        24.8962 
 245   0.0000       0.920367        25.0445 
 246   0.0000       0.925466        25.1832 
 247   0.0000       0.932652        25.3787 
 248   0.0000       0.951946        25.9038 
 249   0.0000       0.969102        26.3706 
 250   0.0000       0.980695        26.6861 
 251   0.0000       0.983795        26.7704 
 252   0.0000       0.996668        27.1207 
 253   0.0000       0.998152        27.1611 
 254   0.0000       1.010888        27.5077 
 255   0.0000       1.030905        28.0524 
 256   0.0000       1.038525        28.2597 
 257   0.0000       1.042064        28.3560 
 258   0.0000       1.051367        28.6092 
 259   0.0000       1.053563        28.6689 
 260   0.0000       1.054735        28.7008 
 261   0.0000       1.067692        29.0534 
 262   0.0000       1.077202        29.3122 
 263   0.0000       1.082428        29.4544 
 264   0.0000       1.083322        29.4787 
 265   0.0000       1.087211        29.5845 
 266   0.0000       1.087870        29.6025 
 267   0.0000       1.099317        29.9139 
 268   0.0000       1.101719        29.9793 
 269   0.0000       1.106100        30.0985 
 270   0.0000       1.117510        30.4090 
 271   0.0000       1.127215        30.6731 
 272   0.0000       1.136166        30.9166 
 273   0.0000       1.149793        31.2874 
 274   0.0000       1.150075        31.2951 
 275   0.0000       1.159670        31.5562 
 276   0.0000       1.186158        32.2770 
 277   0.0000       1.196448        32.5570 
 278   0.0000       1.212966        33.0065 
 279   0.0000       1.220756        33.2185 
 280   0.0000       1.269330        34.5402 
 281   0.0000       1.309310        35.6281 
 282   0.0000       1.310429        35.6586 
 283   0.0000       1.315339        35.7922 
 284   0.0000       1.329551        36.1789 
 285   0.0000       1.348852        36.7041 
 286   0.0000       1.362194        37.0672 
 287   0.0000       1.370392        37.2903 
 288   0.0000       1.377424        37.4816 
 289   0.0000       1.401270        38.1305 
 290   0.0000       1.405268        38.2393 
 291   0.0000       1.428387        38.8684 
 292   0.0000       1.433019        38.9944 
 293   0.0000       1.446630        39.3648 
 294   0.0000       1.448949        39.4279 
 295   0.0000       1.462422        39.7945 
 296   0.0000       1.473185        40.0874 
 297   0.0000       1.488544        40.5054 
 298   0.0000       1.496701        40.7273 
 299   0.0000       1.499833        40.8125 
 300   0.0000       1.520102        41.3641 
 301   0.0000       1.527554        41.5668 
 302   0.0000       1.547302        42.1042 
 303   0.0000       1.559210        42.4283 
 304   0.0000       1.562391        42.5148 
 305   0.0000       1.564397        42.5694 
 306   0.0000       1.569925        42.7198 
 307   0.0000       1.574218        42.8366 
 308   0.0000       1.577424        42.9239 
 309   0.0000       1.587818        43.2067 
 310   0.0000       1.594915        43.3998 
 311   0.0000       1.596384        43.4398 
 312   0.0000       1.600189        43.5433 
 313   0.0000       1.605512        43.6882 
 314   0.0000       1.612521        43.8789 
 315   0.0000       1.622656        44.1547 
 316   0.0000       1.661211        45.2039 
 317   0.0000       1.665370        45.3170 
 318   0.0000       1.668924        45.4137 
 319   0.0000       1.687192        45.9108 
 320   0.0000       1.698846        46.2279 
 321   0.0000       1.699057        46.2337 
 322   0.0000       1.703101        46.3437 
 323   0.0000       1.707395        46.4606 
 324   0.0000       1.715084        46.6698 
 325   0.0000       1.719957        46.8024 
 326   0.0000       1.720783        46.8249 
 327   0.0000       1.721669        46.8490 
 328   0.0000       1.750868        47.6435 
 329   0.0000       1.756424        47.7947 
 330   0.0000       1.761007        47.9194 
 331   0.0000       1.764836        48.0236 
 332   0.0000       1.790739        48.7285 
 333   0.0000       1.796880        48.8956 
 334   0.0000       1.799437        48.9652 
 335   0.0000       1.800231        48.9868 
 336   0.0000       1.820655        49.5425 
 337   0.0000       1.836680        49.9786 
 338   0.0000       1.859317        50.5946 
 339   0.0000       1.860145        50.6171 
 340   0.0000       1.869136        50.8618 
 341   0.0000       1.870370        50.8953 
 342   0.0000       1.884401        51.2772 
 343   0.0000       1.895312        51.5741 
 344   0.0000       1.926755        52.4297 
 345   0.0000       1.934135        52.6305 
 346   0.0000       1.937449        52.7207 
 347   0.0000       1.942619        52.8614 
 348   0.0000       1.947830        53.0031 
 349   0.0000       1.951451        53.1017 
 350   0.0000       1.954567        53.1865 
 351   0.0000       1.957151        53.2568 
 352   0.0000       1.962166        53.3932 
 353   0.0000       1.976859        53.7931 
 354   0.0000       1.980851        53.9017 
 355   0.0000       1.983181        53.9651 
 356   0.0000       2.010984        54.7217 
 357   0.0000       2.044063        55.6218 
 358   0.0000       2.044411        55.6312 
 359   0.0000       2.048683        55.7475 
 360   0.0000       2.051662        55.8286 
 361   0.0000       2.068640        56.2906 
 362   0.0000       2.069108        56.3033 
 363   0.0000       2.104323        57.2615 
 364   0.0000       2.114868        57.5485 
 365   0.0000       2.121994        57.7424 
 366   0.0000       2.135535        58.1108 
 367   0.0000       2.144112        58.3443 
 368   0.0000       2.148360        58.4599 
 369   0.0000       2.161899        58.8283 
 370   0.0000       2.162983        58.8578 
 371   0.0000       2.163337        58.8674 
 372   0.0000       2.202150        59.9235 
 373   0.0000       2.278406        61.9986 
 374   0.0000       2.278415        61.9988 
 375   0.0000       2.284839        62.1736 
 376   0.0000       2.287721        62.2521 
 377   0.0000       2.342719        63.7486 
 378   0.0000       2.347403        63.8761 
 379   0.0000       2.347555        63.8802 
 380   0.0000       2.352898        64.0256 
 381   0.0000       2.369967        64.4901 
 382   0.0000       2.373873        64.5964 
 383   0.0000       2.373999        64.5998 
 384   0.0000       2.410556        65.5946 
 385   0.0000       2.412343        65.6432 
 386   0.0000       2.414962        65.7144 
 387   0.0000       2.439188        66.3737 
 388   0.0000       2.455785        66.8253 
 389   0.0000       2.457374        66.8685 
 390   0.0000       2.463062        67.0233 
 391   0.0000       2.464814        67.0710 
 392   0.0000       2.465986        67.1029 
 393   0.0000       2.472883        67.2906 
 394   0.0000       2.486500        67.6611 
 395   0.0000       2.488474        67.7148 
 396   0.0000       2.491838        67.8064 
 397   0.0000       2.495792        67.9139 
 398   0.0000       2.499196        68.0066 
 399   0.0000       2.501207        68.0613 
 400   0.0000       2.506490        68.2051 
 401   0.0000       2.508342        68.2555 
 402   0.0000       2.511445        68.3399 
 403   0.0000       2.513847        68.4052 
 404   0.0000       2.515512        68.4506 
 405   0.0000       2.552858        69.4668 
 406   0.0000       2.558636        69.6240 
 407   0.0000       2.610631        71.0389 
 408   0.0000       2.628817        71.5337 
 409   0.0000       2.636294        71.7372 
 410   0.0000       2.647983        72.0553 
 411   0.0000       2.683340        73.0174 
 412   0.0000       2.692727        73.2728 
 413   0.0000       2.711643        73.7876 
 414   0.0000       2.724131        74.1274 
 415   0.0000       2.783206        75.7349 
 416   0.0000       2.792645        75.9917 
 417   0.0000       2.792932        75.9996 
 418   0.0000       2.810350        76.4735 
 419   0.0000       2.853871        77.6578 
 420   0.0000       2.876278        78.2675 
 421   0.0000       2.878893        78.3387 
 422   0.0000       2.915106        79.3241 
 423   0.0000       2.919796        79.4517 
 424   0.0000       3.056237        83.1644 
 425   0.0000       3.067191        83.4625 
 426   0.0000       3.185989        86.6952 
 427   0.0000       3.186527        86.7098 
 428   0.0000       3.209124        87.3247 
 429   0.0000       3.209513        87.3353 
 430   0.0000       3.255099        88.5758 
 431   0.0000       3.284847        89.3852 
 432   0.0000       3.286705        89.4358 
 433   0.0000       3.303933        89.9046 
 434   0.0000       3.868211       105.2594 
 435   0.0000       3.893014       105.9343 
 436   0.0000       3.900295       106.1324 
 437   0.0000       3.903691       106.2248 
 438   0.0000       3.983925       108.4081 
 439   0.0000       3.990373       108.5836 
 440   0.0000       4.087140       111.2167 

                    ********************************
                    * MULLIKEN POPULATION ANALYSIS *
                    ********************************

--------------------------------------------
MULLIKEN ATOMIC CHARGES AND SPIN POPULATIONS
--------------------------------------------
   0 Fe:    0.559618    1.559619
   1 N :   -0.232186    0.039290
   2 C :    0.124729   -0.023169
   3 C :    0.012756    0.002312
   4 C :    0.021232    0.008200
   5 C :    0.124472   -0.029294
   6 C :    0.021449    0.162707
   7 C :    0.120405   -0.023575
   8 C :    0.016064    0.003682
   9 C :    0.018411    0.008135
  10 C :    0.124387   -0.027940
  11 N :   -0.231193    0.037058
  12 C :    0.003712    0.154319
  13 C :    0.124696   -0.022807
  14 C :    0.013226    0.000937
  15 C :    0.021041    0.009461
  16 C :    0.124626   -0.031014
  17 N :   -0.232539    0.039865
  18 C :    0.020974    0.164569
  19 C :    0.120513   -0.025303
  20 C :    0.016105    0.004463
  21 C :    0.018774    0.007240
  22 C :    0.124444   -0.028390
  23 N :   -0.231678    0.037892
  24 C :    0.003596    0.154678
  25 O :   -0.203148    0.843310
  26 H :    0.031856   -0.000116
  27 H :    0.033429   -0.000043
  28 H :    0.032677   -0.000029
  29 H :    0.032872   -0.000138
  30 H :    0.033439   -0.000023
  31 H :    0.031896   -0.000226
  32 H :    0.032878   -0.000214
  33 H :    0.032622    0.000097
  34 H :    0.034219   -0.006573
  35 H :    0.032678   -0.006145
  36 H :    0.032653   -0.006128
  37 H :    0.034294   -0.006706
Sum of atomic charges         :    1.0000000
Sum of atomic spin populations:    3.0000000

-----------------------------------------------------
MULLIKEN REDUCED ORBITAL CHARGES AND SPIN POPULATIONS
-----------------------------------------------------
CHARGE
  0 Fes       :     6.372350  s :     6.372350
      pz      :     4.170005  p :    12.715211
      px      :     4.280928
      py      :     4.264278
      dz2     :     0.957233  d :     6.349963
      dxz     :     1.446664
      dyz     :     1.446541
      dx2y2   :     1.649113
      dxy     :     0.850411
      f0      :     0.000952  f :     0.002859
      f+1     :     0.000537
      f-1     :     0.000540
      f+2     :     0.000006
      f-2     :     0.000151
      f+3     :     0.000341
      f-3     :     0.000331
  1 N s       :     3.477112  s :     3.477112
      pz      :     1.345627  p :     3.730817
      px      :     1.189498
      py      :     1.195693
      dz2     :     0.002624  d :     0.024257
      dxz     :     0.003979
      dyz     :     0.003853
      dx2y2   :     0.009373
      dxy     :     0.004429
  2 C s       :     3.051354  s :     3.051354
      pz      :     0.972802  p :     2.765668
      px      :     0.887437
      py      :     0.905430
      dz2     :     0.004642  d :     0.058249
[...]
      f-2     :     0.000001
      f+3     :     0.000018
      f-3     :     0.000028
  1 N s       :     0.002403  s :     0.002403
      pz      :     0.038273  p :     0.041756
      px      :    -0.000912
      py      :     0.004394
      dz2     :    -0.000011  d :     0.000172
      dxz     :     0.000005
      dyz     :    -0.000007
      dx2y2   :     0.000109
      dxy     :     0.000077
  2 C s       :    -0.000919  s :    -0.000919
      pz      :    -0.008150  p :    -0.009729
      px      :    -0.001280
      py      :    -0.000299
      dz2     :     0.000613  d :     0.003412
      dxz     :     0.001473
      dyz     :     0.000989
      dx2y2   :     0.000110
      dxy     :     0.000226
  3 C s       :     0.000027  s :     0.000027
      pz      :     0.002220  p :     0.001964
      px      :    -0.000074
      py      :    -0.000182
      dz2     :     0.000059  d :     0.000091
      dxz     :    -0.000054
      dyz     :     0.000040
      dx2y2   :    -0.000008
      dxy     :     0.000055
  4 C s       :     0.000218  s :     0.000218
      pz      :     0.006729  p :     0.007016
      px      :     0.000690
      py      :    -0.000402
      dz2     :    -0.000001  d :    -0.000080
      dxz     :     0.000036
      dyz     :    -0.000173
      dx2y2   :    -0.000002
      dxy     :     0.000060
  5 C s       :    -0.001182  s :    -0.001182
      pz      :    -0.012486  p :    -0.014749
      px      :    -0.000623
      py      :    -0.001640
      dz2     :     0.000458  d :     0.003610
      dxz     :     0.000995
      dyz     :     0.001610
      dx2y2   :     0.000094
      dxy     :     0.000452
  6 C s       :     0.003523  s :     0.003523
      pz      :     0.114181  p :     0.123673
      px      :     0.007390
      py      :     0.002102
      dz2     :    -0.000294  d :    -0.000764
      dxz     :    -0.000132
      dyz     :    -0.000130
      dx2y2   :    -0.000098
      dxy     :    -0.000110
  7 C s       :    -0.001006  s :    -0.001006
      pz      :    -0.008552  p :    -0.010306
      px      :    -0.000042
      py      :    -0.001711
      dz2     :     0.000671  d :     0.003584
      dxz     :     0.000911
      dyz     :     0.001395
      dx2y2   :     0.000082
      dxy     :     0.000525
  8 C s       :     0.000116  s :     0.000116
      pz      :     0.003812  p :     0.003369
      px      :     0.000296
      py      :    -0.000740
      dz2     :     0.000013  d :     0.000084
      dxz     :     0.000036
      dyz     :    -0.000070
      dx2y2   :     0.000024
      dxy     :     0.000082
  9 C s       :     0.000130  s :     0.000130
      pz      :     0.006599  p :     0.006714
      px      :    -0.000062
      py      :     0.000177
      dz2     :     0.000033  d :    -0.000047
      dxz     :    -0.000110
      dyz     :     0.000039
      dx2y2   :    -0.000024
      dxy     :     0.000014
 10 C s       :    -0.001026  s :    -0.001026
      pz      :    -0.010806  p :    -0.013373
      px      :    -0.001344
      py      :    -0.001224
      dz2     :     0.000414  d :     0.003394
      dxz     :     0.001673
      dyz     :     0.000975
      dx2y2   :     0.000119
      dxy     :     0.000213
 11 N s       :     0.002146  s :     0.002146
      pz      :     0.035658  p :     0.039891
      px      :    -0.001292
      py      :     0.005526
      dz2     :     0.000020  d :     0.000202
      dxz     :     0.000024
      dyz     :    -0.000047
      dx2y2   :     0.000114
      dxy     :     0.000091
 12 C s       :     0.003317  s :     0.003317
      pz      :     0.107950  p :     0.117760
      px      :     0.002054
      py      :     0.007756
      dz2     :    -0.000287  d :    -0.000714
      dxz     :    -0.000068
      dyz     :    -0.000122
      dx2y2   :    -0.000085
      dxy     :    -0.000153
 13 C s       :    -0.000902  s :    -0.000902
      pz      :    -0.008045  p :    -0.009591
      px      :    -0.001253
      py      :    -0.000293
      dz2     :     0.000614  d :     0.003405
      dxz     :     0.001464
      dyz     :     0.000992
      dx2y2   :     0.000108
      dxy     :     0.000226
 14 C s       :    -0.000038  s :    -0.000038
      pz      :     0.001545  p :     0.001118
      px      :    -0.000174
      py      :    -0.000254
      dz2     :     0.000064  d :     0.000113
      dxz     :    -0.000050
      dyz     :     0.000044
      dx2y2   :    -0.000005
      dxy     :     0.000059
 15 C s       :     0.000272  s :     0.000272
      pz      :     0.007272  p :     0.007723
      px      :     0.000753
      py      :    -0.000303
      dz2     :    -0.000007  d :    -0.000112
      dxz     :     0.000032
      dyz     :    -0.000187
      dx2y2   :    -0.000005
      dxy     :     0.000055
 16 C s       :    -0.001275  s :    -0.001275
      pz      :    -0.013242  p :    -0.015692
      px      :    -0.000726
      py      :    -0.001724
      dz2     :     0.000464  d :     0.003649
      dxz     :     0.001000
      dyz     :     0.001625
      dx2y2   :     0.000101
      dxy     :     0.000458
 17 N s       :     0.002436  s :     0.002436
      pz      :     0.038570  p :     0.042148
      px      :    -0.000851
      py      :     0.004429
      dz2     :    -0.000013  d :     0.000163
      dxz     :    -0.000000
      dyz     :    -0.000007
      dx2y2   :     0.000107
      dxy     :     0.000076
 18 C s       :     0.003605  s :     0.003605
      pz      :     0.114973  p :     0.124666
      px      :     0.007499
      py      :     0.002194
      dz2     :    -0.000300  d :    -0.000806
      dxz     :    -0.000136
      dyz     :    -0.000150
      dx2y2   :    -0.000104
      dxy     :    -0.000116
 19 C s       :    -0.001102  s :    -0.001102
      pz      :    -0.009324  p :    -0.011272
      px      :    -0.000132
      py      :    -0.001816
      dz2     :     0.000679  d :     0.003623
      dxz     :     0.000916
      dyz     :     0.001408
      dx2y2   :     0.000088
      dxy     :     0.000532
 20 C s       :     0.000146  s :     0.000146
      pz      :     0.004108  p :     0.003772
      px      :     0.000320
      py      :    -0.000656
      dz2     :     0.000009  d :     0.000059
      dxz     :     0.000033
      dyz     :    -0.000082
      dx2y2   :     0.000021
      dxy     :     0.000078
 21 C s       :     0.000083  s :     0.000083
      pz      :     0.006117  p :     0.006128
      px      :    -0.000096
      py      :     0.000108
      dz2     :     0.000037  d :    -0.000038
      dxz     :    -0.000112
      dyz     :     0.000042
      dx2y2   :    -0.000022
      dxy     :     0.000015
 22 C s       :    -0.001056  s :    -0.001056
      pz      :    -0.011067  p :    -0.013687
      px      :    -0.001354
      py      :    -0.001266
      dz2     :     0.000417  d :     0.003402
      dxz     :     0.001670
      dyz     :     0.000981
      dx2y2   :     0.000120
      dxy     :     0.000215
 23 N s       :     0.002195  s :     0.002195
      pz      :     0.036048  p :     0.040446
      px      :    -0.001209
      py      :     0.005606
      dz2     :     0.000018  d :     0.000187
      dxz     :     0.000018
      dyz     :    -0.000049
      dx2y2   :     0.000110
      dxy     :     0.000090
 24 C s       :     0.003331  s :     0.003331
      pz      :     0.108110  p :     0.117950
      px      :     0.002072
      py      :     0.007768
      dz2     :    -0.000288  d :    -0.000723
      dxz     :    -0.000073
      dyz     :    -0.000122
      dx2y2   :    -0.000086
      dxy     :    -0.000154
 25 O s       :     0.007166  s :     0.007166
      pz      :    -0.004758  p :     0.835002
      px      :     0.419188
      py      :     0.420572
      dz2     :     0.000128  d :     0.000783
      dxz     :     0.000332
      dyz     :     0.000311
      dx2y2   :     0.000007
      dxy     :     0.000005
 26 H s       :    -0.000098  s :    -0.000098
      pz      :     0.000081  p :     0.000092
      px      :    -0.000000
      py      :     0.000012
 27 H s       :     0.000003  s :     0.000003
      pz      :     0.000074  p :     0.000056
      px      :     0.000014
      py      :    -0.000031
 28 H s       :    -0.000033  s :    -0.000033
      pz      :     0.000003  p :     0.000004
      px      :    -0.000001
      py      :     0.000002
 29 H s       :    -0.000051  s :    -0.000051
      pz      :     0.000116  p :     0.000121
      px      :     0.000023
      py      :    -0.000018
 30 H s       :     0.000012  s :     0.000012
      pz      :     0.000067  p :     0.000046
      px      :     0.000012
      py      :    -0.000033
 31 H s       :    -0.000152  s :    -0.000152
      pz      :     0.000091  p :     0.000110
      px      :     0.000000
      py      :     0.000019
 32 H s       :    -0.000088  s :    -0.000088
      pz      :     0.000129  p :     0.000141
      px      :     0.000028
      py      :    -0.000016
 33 H s       :     0.000028  s :     0.000028
      pz      :    -0.000012  p :    -0.000021
      px      :    -0.000003
      py      :    -0.000006
 34 H s       :    -0.003123  s :    -0.003123
      pz      :     0.002563  p :     0.003074
      px      :     0.000482
      py      :     0.000030
 35 H s       :    -0.002882  s :    -0.002882
      pz      :     0.002414  p :     0.002907
      px      :     0.000028
      py      :     0.000465
 36 H s       :    -0.002874  s :    -0.002874
      pz      :     0.002411  p :     0.002902
      px      :     0.000027
      py      :     0.000463
 37 H s       :    -0.003184  s :    -0.003184
      pz      :     0.002580  p :     0.003102
      px      :     0.000490
      py      :     0.000032


                      *****************************
                      * MAYER POPULATION ANALYSIS *
                      *****************************

  NA   - Mulliken gross atomic population
  ZA   - Total nuclear charge
  QA   - Mulliken gross atomic charge
  VA   - Mayer's total valence
  BVA  - Mayer's bonded valence
  FA   - Mayer's free valence

  ATOM       NA         ZA         QA         VA         BVA        FA
  0 Fe    25.4404    26.0000     0.5596     6.1574     5.4240     0.7335
  1 N      7.2322     7.0000    -0.2322     3.3421     3.3398     0.0023
  2 C      5.8753     6.0000     0.1247     3.9241     3.9239     0.0002
  3 C      5.9872     6.0000     0.0128     3.7749     3.7749     0.0000
  4 C      5.9788     6.0000     0.0212     3.7741     3.7741     0.0001
  5 C      5.8755     6.0000     0.1245     3.9297     3.9294     0.0004
  6 C      5.9786     6.0000     0.0214     3.8099     3.7922     0.0177
  7 C      5.8796     6.0000     0.1204     3.9360     3.9357     0.0003
  8 C      5.9839     6.0000     0.0161     3.7749     3.7748     0.0000
  9 C      5.9816     6.0000     0.0184     3.7724     3.7723     0.0001
 10 C      5.8756     6.0000     0.1244     3.9181     3.9178     0.0003
 11 N      7.2312     7.0000    -0.2312     3.3465     3.3445     0.0021
 12 C      5.9963     6.0000     0.0037     3.8145     3.7986     0.0160
 13 C      5.8753     6.0000     0.1247     3.9242     3.9240     0.0002
 14 C      5.9868     6.0000     0.0132     3.7749     3.7749     0.0000
 15 C      5.9790     6.0000     0.0210     3.7742     3.7741     0.0001
 16 C      5.8754     6.0000     0.1246     3.9296     3.9292     0.0004
 17 N      7.2325     7.0000    -0.2325     3.3419     3.3396     0.0023
 18 C      5.9790     6.0000     0.0210     3.8099     3.7919     0.0180
 19 C      5.8795     6.0000     0.1205     3.9360     3.9357     0.0003
 20 C      5.9839     6.0000     0.0161     3.7748     3.7748     0.0000
 21 C      5.9812     6.0000     0.0188     3.7724     3.7723     0.0001
 22 C      5.8756     6.0000     0.1244     3.9181     3.9178     0.0003
 23 N      7.2317     7.0000    -0.2317     3.3462     3.3441     0.0021
 24 C      5.9964     6.0000     0.0036     3.8145     3.7985     0.0160
 25 O      8.2031     8.0000    -0.2031     2.5449     2.1818     0.3630
 26 H      0.9681     1.0000     0.0319     0.9936     0.9936     0.0000
 27 H      0.9666     1.0000     0.0334     0.9936     0.9936     0.0000
 28 H      0.9673     1.0000     0.0327     0.9937     0.9937     0.0000
 29 H      0.9671     1.0000     0.0329     0.9935     0.9935     0.0000
 30 H      0.9666     1.0000     0.0334     0.9936     0.9936     0.0000
 31 H      0.9681     1.0000     0.0319     0.9936     0.9936     0.0000
 32 H      0.9671     1.0000     0.0329     0.9935     0.9935     0.0000
 33 H      0.9674     1.0000     0.0326     0.9937     0.9937     0.0000
 34 H      0.9658     1.0000     0.0342     0.9969     0.9969     0.0001
 35 H      0.9673     1.0000     0.0327     0.9972     0.9972     0.0000
 36 H      0.9673     1.0000     0.0327     0.9972     0.9972     0.0000
 37 H      0.9657     1.0000     0.0343     0.9969     0.9968     0.0001

  Mayer bond orders larger than 0.1
B(  0-Fe,  1-N ) :   0.6919 B(  0-Fe, 11-N ) :   0.6933 B(  0-Fe, 17-N ) :   0.6918 
B(  0-Fe, 23-N ) :   0.6931 B(  0-Fe, 25-O ) :   2.0169 B(  1-N ,  2-C ) :   1.2258 
B(  1-N ,  5-C ) :   1.2098 B(  2-C ,  3-C ) :   1.1501 B(  2-C , 24-C ) :   1.2975 
B(  3-C ,  4-C ) :   1.4892 B(  3-C , 28-H ) :   1.0000 B(  4-C ,  5-C ) :   1.1506 
B(  4-C , 29-H ) :   0.9995 B(  5-C ,  6-C ) :   1.3160 B(  6-C ,  7-C ) :   1.2956 
B(  6-C , 34-H ) :   0.9499 B(  7-C ,  8-C ) :   1.1545 B(  7-C , 11-N ) :   1.2280 
B(  8-C ,  9-C ) :   1.4872 B(  8-C , 30-H ) :   1.0008 B(  9-C , 10-C ) :   1.1481 
B(  9-C , 31-H ) :   0.9990 B( 10-C , 11-N ) :   1.2094 B( 10-C , 12-C ) :   1.3152 
B( 12-C , 13-C ) :   1.2977 B( 12-C , 36-H ) :   0.9482 B( 13-C , 14-C ) :   1.1501 
B( 13-C , 17-N ) :   1.2257 B( 14-C , 15-C ) :   1.4892 B( 14-C , 33-H ) :   1.0001 
B( 15-C , 16-C ) :   1.1506 B( 15-C , 32-H ) :   0.9995 B( 16-C , 17-N ) :   1.2098 
B( 16-C , 18-C ) :   1.3159 B( 18-C , 19-C ) :   1.2956 B( 18-C , 37-H ) :   0.9499 
B( 19-C , 20-C ) :   1.1545 B( 19-C , 23-N ) :   1.2280 B( 20-C , 21-C ) :   1.4872 
B( 20-C , 27-H ) :   1.0008 B( 21-C , 22-C ) :   1.1481 B( 21-C , 26-H ) :   0.9990 
B( 22-C , 23-N ) :   1.2093 B( 22-C , 24-C ) :   1.3153 B( 24-C , 35-H ) :   0.9482 


-------
TIMINGS
-------

Total SCF time: 0 days 0 hours 3 min 57 sec 

Total time                  ....     237.693 sec
Sum of individual times     ....     236.780 sec  ( 99.6%)

Fock matrix formation       ....     223.237 sec  ( 93.9%)
  Split-RI-J                ....     144.645 sec  ( 64.8% of F)
  XC integration            ....      77.969 sec  ( 34.9% of F)
    Basis function eval.    ....      17.073 sec  ( 21.9% of XC)
    Density eval.           ....      24.157 sec  ( 31.0% of XC)
    XC-Functional eval.     ....       2.894 sec  (  3.7% of XC)
    XC-Potential eval.      ....      32.783 sec  ( 42.0% of XC)
Diagonalization             ....       4.094 sec  (  1.7%)
Density matrix formation    ....       0.698 sec  (  0.3%)
Population analysis         ....       0.061 sec  (  0.0%)
Initial guess               ....       2.145 sec  (  0.9%)
Orbital Transformation      ....       0.000 sec  (  0.0%)
Orbital Orthonormalization  ....       0.000 sec  (  0.0%)
DIIS solution               ....       1.547 sec  (  0.7%)
Grid generation             ....       4.999 sec  (  2.1%)

-------------------------   --------------------
FINAL SINGLE POINT ENERGY     -2326.446797681583
-------------------------   --------------------


                            ***************************************
                            *     ORCA property calculations      *
                            ***************************************

                                    ---------------------
                                    Active property flags
                                    ---------------------
   (+) Dipole Moment
   (+) Nuclear properties (Hyperfine,Quadrupole)


------------------------------------------------------------------------------
                       ORCA ELECTRIC PROPERTIES CALCULATION
------------------------------------------------------------------------------

Dipole Moment Calculation                       ... on
Quadrupole Moment Calculation                   ... off
Polarizability Calculation                      ... off
GBWName                                         ... moess.gbw
Electron density file                           ... moess.scfp.tmp
The origin for moment calculation is the CENTER OF MASS  = (-0.000011, -0.000020 -0.009121)

-------------
DIPOLE MOMENT
-------------
                                X             Y             Z
Electronic contribution:     -0.00089      -0.00001      -1.37515
Nuclear contribution   :     -0.00007      -0.00009       2.23808
                        -----------------------------------------
Total Dipole Moment    :     -0.00096      -0.00010       0.86293
                        -----------------------------------------
Magnitude (a.u.)       :      0.86293
Magnitude (Debye)      :      2.19339



--------------------
Rotational spectrum 
--------------------
 
Rotational constants in cm-1:     0.008945     0.008852     0.004671 
Rotational constants in MHz :   268.160967   265.386713   140.027729 

 Dipole components along the rotational axes: 
x,y,z [a.u.] :     0.000819    -0.000292     0.862928 
x,y,z [Debye]:     0.002082    -0.000742     2.193388 

 
------------------------------------------------------------------------------
                                ORCA EPR/NMR CALCULATION
------------------------------------------------------------------------------

GBWName                      ... moess.gbw
Electron density file        ... moess.scfp.tmp
Spin density file            ... moess.scfr.tmp
Multiplicity                 ... 4
g-tensor                     ... 0
NMR chemical shifts          ... 0
Number of nuclei for epr/nmr ... 1
   Nucleus:   0Fe
       Hyperfine : Isotope=   57 I=   0.500 P=  17.280
       Quadrupole: Isotope=   57 I=   0.500 Q=   0.160
       Spin-Orbit: Zeff=  13.910
       Ncuelar Spin-Spin: Gn=   0.000
       rho(0)=Y f(grad)=Y a(iso)=N a(dip)=N a(orb)=N sigma(nmr)=N spin-spin(nmr)=all-N,DSO-N,PSO-N,FC-N,SD-N

-----------------------------------------
ELECTRIC AND MAGNETIC HYPERFINE STRUCTURE
-----------------------------------------

 -----------------------------------------------------------
 Nucleus   0Fe: A:ISTP=   57 I=  0.5 P= 17.2798 MHz/au**3
                Q:ISTP=   57 I=  0.5 Q=  0.1600 barn     
 -----------------------------------------------------------
 Raw EFG matrix (all values in a.u.**-3):
            -0.2720       0.0054      -0.0004
             0.0054      -0.3517      -0.0001
            -0.0004      -0.0001       0.6237

 V(El)      -0.4981      -0.5297       1.0279
 V(Nuc)      0.2265       0.1777      -0.4042
         ----------   ----------   ----------
 V(Tot)     -0.2716      -0.3521       0.6237 
 Orientation: 
  X       0.9977526    0.0670050    0.0004105
  Y       0.0670049   -0.9977526    0.0001387
  Z       0.0004189   -0.0001109   -0.9999999

Note: Tensor is right-handed

Moessbauer quadrupole splitting parameter (proper coordinate system)
 e**2qQ  =   23.448 MHz =    2.021 mm/s
 eta     =  0.129
 Delta-EQ=(1/2{e**2qQ}*sqrt(1+1/3*eta**2) =   11.756 MHz =    1.013 mm/s
 RHO(0)=  11191.227535288 a.u.**-3


------------------------------------------------------------------------------- 

Timings for individual modules:

Sum of individual times         ...      238.426 sec (=   3.974 min)
GTO integral calculation        ...        0.423 sec (=   0.007 min)   0.2 %
SCF iterations                  ...      237.719 sec (=   3.962 min)  99.7 %
EPR/NMR calculation             ...        0.284 sec (=   0.005 min)   0.1 %
                             ****ORCA TERMINATED NORMALLY****
TOTAL RUN TIME: 0 days 0 hours 3 minutes 58 seconds 628 msec
