
                                 *****************
                                 * O   R   C   A *
                                 *****************

           --- An Ab Initio, DFT and Semiempirical electronic structure package ---

                  #######################################################
                  #                        -***-                        #
                  #          Department of theory and spectroscopy      #
                  #               Directorship: Frank Neese             #
                  #        Max Planck Institute fuer Kohlenforschung    #
                  #                Kaiser Wilhelm Platz 1               #
                  #                 D-45470 Muelheim/Ruhr               #
                  #                      Germany                        #
                  #                                                     #
                  #                  All rights reserved                #
                  #                        -***-                        #
                  #######################################################


                         Program Version 4.1.2  - RELEASE  -


 With contributions from (in alphabetic order):
   Daniel Aravena         : Magnetic Properties
   Michael Atanasov       : Ab Initio Ligand Field Theory
   Alexander A. Auer      : GIAO ZORA
   Ute Becker             : Parallelization
   Giovanni Bistoni       : ED, Open-shell LED
   Martin Brehm           : Molecular dynamics
   Dmytro Bykov           : SCF Hessian
   Vijay G. Chilkuri      : MRCI spin determinant printing
   Dipayan Datta          : RHF DLPNO-CCSD density
   Achintya Kumar Dutta   : EOM-CC, STEOM-CC
   Dmitry Ganyushin       : Spin-Orbit,Spin-Spin,Magnetic field MRCI
   Miquel Garcia          : C-PCM Hessian
   Yang Guo               : DLPNO-NEVPT2, CIM, IAO-localization
   Andreas Hansen         : Spin unrestricted coupled pair/coupled cluster methods
   Benjamin Helmich-Paris : CASSCF linear response (MC-RPA)
   Lee Huntington         : MR-EOM, pCC
   Robert Izsak           : Overlap fitted RIJCOSX, COSX-SCS-MP3, EOM
   Christian Kollmar      : KDIIS, OOCD, Brueckner-CCSD(T), CCSD density
   Simone Kossmann        : Meta GGA functionals, TD-DFT gradient, OOMP2, MP2 Hessian
   Martin Krupicka        : AUTO-CI
   Lucas Lang             : DCDCAS
   Dagmar Lenk            : GEPOL surface, SMD
   Dimitrios Liakos       : Extrapolation schemes; parallel MDCI
   Dimitrios Manganas     : ROCIS; embedding schemes
   Dimitrios Pantazis     : SARC Basis sets
   Taras Petrenko         : DFT Hessian,TD-DFT gradient, ASA, ECA, R-Raman, ABS, FL, XAS/XES, NRVS
   Peter Pinski           : DLPNO-MP2, DLPNO-MP2 Gradient
   Christoph Reimann      : Effective Core Potentials
   Marius Retegan         : Local ZFS, SOC
   Christoph Riplinger    : Optimizer, TS searches, QM/MM, DLPNO-CCSD(T), (RO)-DLPNO pert. Triples
   Tobias Risthaus        : Range-separated hybrids, TD-DFT gradient, RPA, STAB
   Michael Roemelt        : Restricted open shell CIS
   Masaaki Saitow         : Open-shell DLPNO
   Barbara Sandhoefer     : DKH picture change effects
   Avijit Sen             : IP-ROCIS
   Kantharuban Sivalingam : CASSCF convergence, NEVPT2, FIC-MRCI
   Bernardo de Souza      : ESD, SOC TD-DFT
   Georgi Stoychev        : AutoAux, RI-MP2 NMR
   Willem Van den Heuvel  : Paramagnetic NMR
   Boris Wezisla          : Elementary symmetry handling
   Frank Wennmohs         : Technical directorship


 We gratefully acknowledge several colleagues who have allowed us to
 interface, adapt or use parts of their codes:
   Stefan Grimme, W. Hujo, H. Kruse,             : VdW corrections, initial TS optimization,
                  C. Bannwarth                     DFT functionals, gCP, sTDA/sTD-DF
   Ed Valeev                                     : LibInt (2-el integral package), F12 methods
   Garnet Chan, S. Sharma, J. Yang, R. Olivares  : DMRG
   Ulf Ekstrom                                   : XCFun DFT Library
   Mihaly Kallay                                 : mrcc  (arbitrary order and MRCC methods)
   Andreas Klamt, Michael Diedenhofen            : otool_cosmo (COSMO solvation model)
   Jiri Pittner, Ondrej Demel                    : Mk-CCSD
   Frank Weinhold                                : gennbo (NPA and NBO analysis)
   Christopher J. Cramer and Donald G. Truhlar   : smd solvation model
   Lars Goerigk                                  : TD-DFT with DH, B97 family of functionals
   V. Asgeirsson, H. Jonsson                     : NEB implementation
   FAccTs GmbH                                   : IRC, NEB, NEB-TS, Multilevel


 Your calculation uses the libint2 library for the computation of 2-el integrals
 For citations please refer to: http://libint.valeyev.net

 This ORCA versions uses:
   CBLAS   interface :  Fast vector & matrix operations
   LAPACKE interface :  Fast linear algebra routines
   SCALAPACK package :  Parallel linear algebra routines




***************************************
The coordinates will be read from file: geom.xyz
***************************************


----- Orbital basis set information -----
Your calculation utilizes the basis: def2-SVP
   F. Weigend and R. Ahlrichs, Phys. Chem. Chem. Phys. 7, 3297 (2005).

----- AuxJ basis set information -----
Your calculation utilizes the auxiliary basis: def2/J
   F. Weigend, Phys. Chem. Chem. Phys. 8, 1057 (2006).

================================================================================
                                        WARNINGS
                       Please study these warnings very carefully!
================================================================================


WARNING: your system is open-shell and RHF/RKS was chosen
  ===> : WILL SWITCH to UHF/UKS


INFO   : the flag for use of LIBINT has been found!

================================================================================
                                       INPUT FILE
================================================================================
NAME = moess.inp
|  1> ! bp86 def2-svp
|  2> 
|  3> * xyzfile  -3 6 geom.xyz
|  4> 
|  5> %eprnmr
|  6> nuclei = all Fe {fgrad, rho}
|  7> end
|  8> 
|  9> 
| 10>                          ****END OF INPUT****
================================================================================

                       ****************************
                       * Single Point Calculation *
                       ****************************

---------------------------------
CARTESIAN COORDINATES (ANGSTROEM)
---------------------------------
  Fe     0.000010    0.000005    0.000000
  F      1.977708    0.000020   -0.000007
  F     -1.977772    0.000020    0.000008
  F      0.000014    1.977718   -0.000001
  F      0.000014   -1.977750    0.000000
  F      0.000005   -0.000007    1.977728
  F      0.000021   -0.000006   -1.977728

----------------------------
CARTESIAN COORDINATES (A.U.)
----------------------------
  NO LB      ZA    FRAG     MASS         X           Y           Z
   0 Fe   26.0000    0    55.850    0.000019    0.000009    0.000000
   1 F     9.0000    0    18.998    3.737326    0.000038   -0.000013
   2 F     9.0000    0    18.998   -3.737447    0.000038    0.000015
   3 F     9.0000    0    18.998    0.000026    3.737345   -0.000002
   4 F     9.0000    0    18.998    0.000026   -3.737406    0.000000
   5 F     9.0000    0    18.998    0.000009   -0.000013    3.737364
   6 F     9.0000    0    18.998    0.000040   -0.000011   -3.737364

--------------------------------
INTERNAL COORDINATES (ANGSTROEM)
--------------------------------
 Fe     0   0   0     0.000000000000     0.00000000     0.00000000
 F      1   0   0     1.977698000069     0.00000000     0.00000000
 F      1   2   0     1.977782000073   179.99913041     0.00000000
 F      1   2   3     1.977713000004    89.99944955     1.90857370
 F      1   2   4     1.977755000004    90.00031868   179.99997102
 F      1   2   4     1.977728000043    90.00034765   269.99962339
 F      1   2   4     1.977728000061    89.99947853    90.00028971

---------------------------
INTERNAL COORDINATES (A.U.)
---------------------------
 Fe     0   0   0     0.000000000000     0.00000000     0.00000000
 F      1   0   0     3.737307595735     0.00000000     0.00000000
 F      1   2   0     3.737466332737   179.99913041     0.00000000
 F      1   2   3     3.737335941504    89.99944955     1.90857370
 F      1   2   4     3.737415310001    90.00031868   179.99997102
 F      1   2   4     3.737364287469    90.00034765   269.99962339
 F      1   2   4     3.737364287503    89.99947853    90.00028971

---------------------
BASIS SET INFORMATION
---------------------
There are 2 groups of distinct atoms

 Group   1 Type Fe  : 14s9p5d1f contracted to 5s3p2d1f pattern {63311/531/41/1}
 Group   2 Type F   : 7s4p1d contracted to 3s2p1d pattern {511/31/1}

Atom   0Fe   basis set group =>   1
Atom   1F    basis set group =>   2
Atom   2F    basis set group =>   2
Atom   3F    basis set group =>   2
Atom   4F    basis set group =>   2
Atom   5F    basis set group =>   2
Atom   6F    basis set group =>   2
-------------------------------
AUXILIARY BASIS SET INFORMATION
-------------------------------
There are 2 groups of distinct atoms

 Group   1 Type Fe  : 19s5p5d3f3g contracted to 8s5p5d2f3g pattern {121111111/11111/11111/21/111}
 Group   2 Type F   : 12s5p4d2f1g contracted to 6s4p3d1f1g pattern {711111/2111/211/2/1}

Atom   0Fe   basis set group =>   1
Atom   1F    basis set group =>   2
Atom   2F    basis set group =>   2
Atom   3F    basis set group =>   2
Atom   4F    basis set group =>   2
Atom   5F    basis set group =>   2
Atom   6F    basis set group =>   2
------------------------------------------------------------------------------
                           ORCA GTO INTEGRAL CALCULATION
                           -- RI-GTO INTEGRALS CHOSEN --
------------------------------------------------------------------------------

                         BASIS SET STATISTICS AND STARTUP INFO

Gaussian basis set:
 # of primitive gaussian shells          ...  101
 # of primitive gaussian functions       ...  217
 # of contracted shells                  ...   47
 # of contracted basis functions         ...  115
 Highest angular momentum                ...    3
 Maximum contraction depth               ...    6
Auxiliary gaussian basis set:
 # of primitive gaussian shells          ...  179
 # of primitive gaussian functions       ...  527
 # of contracted shells                  ...  113
 # of contracted aux-basis functions     ...  383
 Highest angular momentum                ...    4
 Maximum contraction depth               ...   12
Ratio of auxiliary to basis functions    ...  3.33
Integral package used                  ... LIBINT
 One Electron integrals                  ... done
 Ordering auxiliary basis shells         ... done
 Integral threshhold             Thresh  ...  1.000e-10
 Primitive cut-off               TCut    ...  1.000e-11
 Pre-screening matrix                    ... done
 Shell pair data                         ... 
 Ordering of the shell pairs             ... done (   0.000 sec) 1002 of 1128 pairs
 Determination of significant pairs      ... done (   0.000 sec)
 Creation of shell pair data             ... done (   0.000 sec)
 Storage of shell pair data              ... done (   0.000 sec)
 Shell pair data done in (   0.001 sec)
 Computing two index integrals           ... done
 Cholesky decomposition of the V-matrix  ... done


Timings:
 Total evaluation time                   ...   0.141 sec (  0.002 min)
 One electron matrix time                ...   0.007 sec (  0.000 min) =  5.1%
 Schwartz matrix evaluation time         ...   0.109 sec (  0.002 min) = 77.2%
 Two index repulsion integral time       ...   0.003 sec (  0.000 min) =  2.1%
 Cholesky decomposition of V             ...   0.002 sec (  0.000 min) =  1.3%
 Three index repulsion integral time     ...   0.000 sec (  0.000 min) =  0.0%

-------------------------------------------------------------------------------
                                 ORCA SCF
-------------------------------------------------------------------------------

------------
SCF SETTINGS
------------
Hamiltonian:
 Density Functional     Method          .... DFT(GTOs)
 Exchange Functional    Exchange        .... B88
   X-Alpha parameter    XAlpha          ....  0.666667
   Becke's b parameter  XBeta           ....  0.004200
 Correlation Functional Correlation     .... P86
 LDA part of GGA corr.  LDAOpt          .... PW91-LDA
 Gradients option       PostSCFGGA      .... off
   Density functional embedding theory  .... OFF
 RI-approximation to the Coulomb term is turned on
   Number of auxiliary basis functions  .... 383


General Settings:
 Integral files         IntName         .... moess
 Hartree-Fock type      HFTyp           .... UHF
 Total Charge           Charge          ....   -3
 Multiplicity           Mult            ....    6
 Number of Electrons    NEL             ....   83
 Basis Dimension        Dim             ....  115
 Nuclear Repulsion      ENuc            ....    592.0752991335 Eh

Convergence Acceleration:
 DIIS                   CNVDIIS         .... on
   Start iteration      DIISMaxIt       ....    12
   Startup error        DIISStart       ....  0.200000
   # of expansion vecs  DIISMaxEq       ....     5
   Bias factor          DIISBfac        ....   1.050
   Max. coefficient     DIISMaxC        ....  10.000
 Newton-Raphson         CNVNR           .... off
 SOSCF                  CNVSOSCF        .... off
 Level Shifting         CNVShift        .... on
   Level shift para.    LevelShift      ....    0.2500
   Turn off err/grad.   ShiftErr        ....    0.0010
 Zerner damping         CNVZerner       .... off
 Static damping         CNVDamp         .... on
   Fraction old density DampFac         ....    0.7000
   Max. Damping (<1)    DampMax         ....    0.9800
   Min. Damping (>=0)   DampMin         ....    0.0000
   Turn off err/grad.   DampErr         ....    0.1000
 Fernandez-Rico         CNVRico         .... off

SCF Procedure:
 Maximum # iterations   MaxIter         ....   125
 SCF integral mode      SCFMode         .... Direct
   Integral package                     .... LIBINT
 Reset frequency        DirectResetFreq ....    20
 Integral Threshold     Thresh          ....  1.000e-10 Eh
 Primitive CutOff       TCut            ....  1.000e-11 Eh

Convergence Tolerance:
 Convergence Check Mode ConvCheckMode   .... Total+1el-Energy
 Convergence forced     ConvForced      .... 0
 Energy Change          TolE            ....  1.000e-06 Eh
 1-El. energy change                    ....  1.000e-03 Eh
 DIIS Error             TolErr          ....  1.000e-06


Diagonalization of the overlap matrix:
Smallest eigenvalue                        ... 3.791e-02
Time for diagonalization                   ...    0.002 sec
Threshold for overlap eigenvalues          ... 1.000e-08
Number of eigenvalues below threshold      ... 0
Time for construction of square roots      ...    0.001 sec
Total time needed                          ...    0.002 sec

-------------------
DFT GRID GENERATION
-------------------

General Integration Accuracy     IntAcc      ...  4.340
Radial Grid Type                 RadialGrid  ... Gauss-Chebyshev
Angular Grid (max. acc.)         AngularGrid ... Lebedev-110
Angular grid pruning method      GridPruning ... 3 (G Style)
Weight generation scheme         WeightScheme... Becke
Basis function cutoff            BFCut       ...    1.0000e-10
Integration weight cutoff        WCut        ...    1.0000e-14
Grids for H and He will be reduced by one unit

# of grid points (after initial pruning)     ...  13352 (   0.0 sec)
# of grid points (after weights+screening)   ...  12890 (   0.0 sec)
nearest neighbour list constructed           ...    0.0 sec
Grid point re-assignment to atoms done       ...    0.0 sec
Grid point division into batches done        ...    0.0 sec
Reduced shell lists constructed in    0.1 sec

Total number of grid points                  ...    12890
Total number of batches                      ...      205
Average number of points per batch           ...       62
Average number of grid points per atom       ...     1841
Average number of shells per batch           ...    28.17 (59.93%)
Average number of basis functions per batch  ...    72.31 (62.88%)
Average number of large shells per batch     ...    21.15 (75.09%)
Average number of large basis fcns per batch ...    52.64 (72.79%)
Maximum spatial batch extension              ...  26.92, 30.38, 20.51 au
Average spatial batch extension              ...   4.23,  4.38,  4.10 au

Time for grid setup =    0.079 sec

------------------------------
INITIAL GUESS: MODEL POTENTIAL
------------------------------
Loading Hartree-Fock densities                     ... done
Calculating cut-offs                               ... done
Setting up the integral package                    ... done
Initializing the effective Hamiltonian             ... done
Starting the Coulomb interaction                   ... done (   0.0 sec)
Reading the grid                                   ... done
Mapping shells                                     ... done
Starting the XC term evaluation                    ... done (   0.1 sec)
  promolecular density results
     # of electrons  =     80.006361908
     EX              =   -114.442520533
     EC              =     -3.385703843
     EX+EC           =   -117.828224376
Transforming the Hamiltonian                       ... done (   0.0 sec)
Diagonalizing the Hamiltonian                      ... done (   0.0 sec)
Back transforming the eigenvectors                 ... done (   0.0 sec)
Now organizing SCF variables                       ... done
                      ------------------
                      INITIAL GUESS DONE (   0.2 sec)
                      ------------------
--------------
SCF ITERATIONS
--------------
ITER       Energy         Delta-E        Max-DP      RMS-DP      [F,P]     Damp
               ***  Starting incremental Fock matrix formation  ***
  0  -1861.6461865893   0.000000000000 0.14442611  0.00355371  0.2784563 0.7000
  1  -1861.7669434419  -0.120756852554 0.02319475  0.00089677  0.1267811 0.7000
                               ***Turning on DIIS***
  2  -1861.8768191181  -0.109875676224 0.10449576  0.00228068  0.0549264 0.0000
  3  -1861.9948764395  -0.118057321380 0.01496012  0.00035302  0.1909331 0.7000
  4  -1862.0232296946  -0.028353255118 0.01372535  0.00033276  0.1566639 0.7000
  5  -1862.0471885076  -0.023958812941 0.01259292  0.00028006  0.1245792 0.7000
  6  -1862.0651168118  -0.017928304283 0.03557276  0.00077091  0.0984302 0.0000
  7  -1862.1003943458  -0.035277533991 0.01074961  0.00028521  0.0283396 0.0000
  8  -1862.1039733579  -0.003579012058 0.00401410  0.00008599  0.0048323 0.0000
  9  -1862.1041480201  -0.000174662192 0.00268301  0.00004645  0.0022242 0.0000
 10  -1862.1041692507  -0.000021230567 0.00159833  0.00002332  0.0025555 0.0000
 11  -1862.1041828972  -0.000013646589 0.00085153  0.00001045  0.0010928 0.0000
 12  -1862.1041866862  -0.000003788907 0.00046734  0.00000724  0.0004953 0.0000
 13  -1862.1041873868  -0.000000700645 0.00003610  0.00000090  0.0000597 0.0000
                 **** Energy Check signals convergence ****

               *****************************************************
               *                     SUCCESS                       *
               *           SCF CONVERGED AFTER  14 CYCLES          *
               *****************************************************

Setting up the final grid:

General Integration Accuracy     IntAcc      ...  4.670
Radial Grid Type                 RadialGrid  ... Gauss-Chebyshev
Angular Grid (max. acc.)         AngularGrid ... Lebedev-302
Angular grid pruning method      GridPruning ... 3 (G Style)
Weight generation scheme         WeightScheme... Becke
Basis function cutoff            BFCut       ...    1.0000e-10
Integration weight cutoff        WCut        ...    1.0000e-14
Grids for H and He will be reduced by one unit

# of grid points (after initial pruning)     ...  47272 (   0.0 sec)
# of grid points (after weights+screening)   ...  45694 (   0.0 sec)
nearest neighbour list constructed           ...    0.0 sec
Grid point re-assignment to atoms done       ...    0.0 sec
Grid point division into batches done        ...    0.2 sec
Reduced shell lists constructed in    0.4 sec

Total number of grid points                  ...    45694
Total number of batches                      ...      718
Average number of points per batch           ...       63
Average number of grid points per atom       ...     6528
Average number of shells per batch           ...    24.73 (52.61%)
Average number of basis functions per batch  ...    62.55 (54.40%)
Average number of large shells per batch     ...    18.18 (73.54%)
Average number of large basis fcns per batch ...    44.52 (71.17%)
Maximum spatial batch extension              ...  19.13, 24.77, 19.40 au
Average spatial batch extension              ...   2.95,  2.99,  2.91 au

Final grid set up in    0.4 sec
Final integration                            ... done (   0.3 sec)
Change in XC energy                          ...    -0.000143129
Integrated number of electrons               ...    82.999835788
Previous integrated no of electrons          ...    82.998815346

----------------
TOTAL SCF ENERGY
----------------

Total Energy       :        -1862.10433050 Eh          -50670.43487 eV

Components:
Nuclear Repulsion  :          592.07529913 Eh           16111.18797 eV
Electronic Energy  :        -2454.17962963 Eh          -66781.62283 eV
One Electron Energy:        -3818.91342744 Eh         -103917.91745 eV
Two Electron Energy:         1364.73379781 Eh           37136.29461 eV

Virial components:
Potential Energy   :        -3718.39775865 Eh         -101182.74704 eV
Kinetic Energy     :         1856.29342815 Eh           50512.31218 eV
Virial Ratio       :            2.00313038


DFT components:
N(Alpha)           :       43.999919841949 electrons
N(Beta)            :       38.999915946264 electrons
N(Total)           :       82.999835788213 electrons
E(X)               :     -116.177393688070 Eh       
E(C)               :       -3.528576718534 Eh       
E(XC)              :     -119.705970406605 Eh       
DFET-embed. en.    :        0.000000000000 Eh       

---------------
SCF CONVERGENCE
---------------

  Last Energy change         ...    1.9598e-08  Tolerance :   1.0000e-06
  Last MAX-Density change    ...    7.9026e-06  Tolerance :   1.0000e-05
  Last RMS-Density change    ...    1.2061e-07  Tolerance :   1.0000e-06
  Last DIIS Error            ...    8.0997e-06  Tolerance :   1.0000e-06

             **** THE GBW FILE WAS UPDATED (moess.gbw) ****
             **** DENSITY FILE WAS UPDATED (moess.scfp.tmp) ****
             **** ENERGY FILE WAS UPDATED (moess.en.tmp) ****
----------------------
UHF SPIN CONTAMINATION
----------------------

Warning: in a DFT calculation there is little theoretical justification to 
         calculate <S**2> as in Hartree-Fock theory. We will do it anyways
         but you should keep in mind that the values have only limited relevance

Expectation value of <S**2>     :     8.751589
Ideal value S*(S+1) for S=2.5   :     8.750000
Deviation                       :     0.001589

----------------
ORBITAL ENERGIES
----------------
                 SPIN UP ORBITALS
  NO   OCC          E(Eh)            E(eV) 
   0   1.0000    -254.273055     -6919.1216 
   1   1.0000     -29.066884      -790.9501 
   2   1.0000     -25.008206      -680.5079 
   3   1.0000     -25.008206      -680.5079 
   4   1.0000     -25.008206      -680.5079 
   5   1.0000     -23.574226      -641.4873 
   6   1.0000     -23.574079      -641.4833 
   7   1.0000     -23.574078      -641.4833 
   8   1.0000     -23.574078      -641.4833 
   9   1.0000     -23.573928      -641.4792 
  10   1.0000     -23.573927      -641.4792 
  11   1.0000      -2.813939       -76.5712 
  12   1.0000      -1.625313       -44.2270 
  13   1.0000      -1.625313       -44.2270 
  14   1.0000      -1.625313       -44.2270 
  15   1.0000      -0.339450        -9.2369 
  16   1.0000      -0.325865        -8.8672 
  17   1.0000      -0.325864        -8.8672 
  18   1.0000      -0.325863        -8.8672 
  19   1.0000      -0.324322        -8.8253 
  20   1.0000      -0.324321        -8.8252 
  21   1.0000       0.236831         6.4445 
  22   1.0000       0.236832         6.4445 
  23   1.0000       0.254390         6.9223 
  24   1.0000       0.263133         7.1602 
  25   1.0000       0.263134         7.1602 
  26   1.0000       0.263134         7.1603 
  27   1.0000       0.296043         8.0557 
  28   1.0000       0.296043         8.0557 
  29   1.0000       0.296043         8.0558 
  30   1.0000       0.343966         9.3598 
  31   1.0000       0.343966         9.3598 
  32   1.0000       0.343967         9.3598 
  33   1.0000       0.344577         9.3764 
  34   1.0000       0.344578         9.3764 
  35   1.0000       0.344578         9.3764 
  36   1.0000       0.357430         9.7262 
  37   1.0000       0.357430         9.7262 
  38   1.0000       0.357431         9.7262 
  39   1.0000       0.359016         9.7693 
  40   1.0000       0.359016         9.7693 
  41   1.0000       0.359016         9.7693 
  42   1.0000       0.417544        11.3620 
  43   1.0000       0.417545        11.3620 
  44   0.0000       0.522234        14.2107 
  45   0.0000       0.785003        21.3610 
  46   0.0000       0.878128        23.8951 
  47   0.0000       0.878130        23.8951 
  48   0.0000       0.878132        23.8952 
  49   0.0000       1.411805        38.4172 
  50   0.0000       1.411805        38.4172 
  51   0.0000       1.411805        38.4172 
  52   0.0000       1.606415        43.7128 
  53   0.0000       1.606416        43.7128 
  54   0.0000       1.655467        45.0475 
  55   0.0000       1.655467        45.0476 
  56   0.0000       1.655468        45.0476 
  57   0.0000       1.725525        46.9539 
  58   0.0000       1.725526        46.9540 
  59   0.0000       1.725528        46.9540 
  60   0.0000       1.782545        48.5055 
  61   0.0000       1.782551        48.5057 
  62   0.0000       1.791169        48.7402 
  63   0.0000       1.832996        49.8784 
  64   0.0000       1.832997        49.8784 
  65   0.0000       1.832998        49.8784 
  66   0.0000       1.834735        49.9257 
  67   0.0000       1.834737        49.9257 
  68   0.0000       1.834740        49.9258 
  69   0.0000       1.846288        50.2401 
  70   0.0000       1.846289        50.2401 
  71   0.0000       1.846289        50.2401 
  72   0.0000       2.263834        61.6021 
  73   0.0000       2.263835        61.6021 
  74   0.0000       2.377586        64.6974 
  75   0.0000       2.377589        64.6975 
  76   0.0000       2.377592        64.6976 
  77   0.0000       2.685240        73.0691 
  78   0.0000       3.630086        98.7797 
  79   0.0000       3.630088        98.7797 
  80   0.0000       3.630089        98.7798 
  81   0.0000       3.641343        99.0860 
  82   0.0000       3.641344        99.0860 
  83   0.0000       3.641344        99.0860 
  84   0.0000       3.642947        99.1296 
  85   0.0000       3.642948        99.1296 
  86   0.0000       3.642948        99.1297 
  87   0.0000       3.656165        99.4893 
  88   0.0000       3.656166        99.4893 
  89   0.0000       3.656167        99.4893 
  90   0.0000       3.656335        99.4939 
  91   0.0000       3.656363        99.4947 
  92   0.0000       3.656365        99.4947 
  93   0.0000       3.669797        99.8603 
  94   0.0000       3.670184        99.8708 
  95   0.0000       3.670185        99.8708 
  96   0.0000       3.670185        99.8708 
  97   0.0000       3.670227        99.8719 
  98   0.0000       3.670229        99.8720 
  99   0.0000       3.755241       102.1853 
 100   0.0000       3.759438       102.2995 
 101   0.0000       3.759439       102.2995 
 102   0.0000       3.759440       102.2996 
 103   0.0000       3.787683       103.0681 
 104   0.0000       3.787685       103.0681 
 105   0.0000       3.787687       103.0682 
 106   0.0000       4.117673       112.0476 
 107   0.0000       4.117684       112.0479 
 108   0.0000       4.473344       121.7259 
 109   0.0000       4.486285       122.0780 
 110   0.0000       4.486286       122.0780 
 111   0.0000       4.486286       122.0780 
 112   0.0000       4.606916       125.3606 
 113   0.0000       4.606920       125.3607 
 114   0.0000       4.606924       125.3608 

                 SPIN DOWN ORBITALS
  NO   OCC          E(Eh)            E(eV) 
   0   1.0000    -254.272509     -6919.1067 
   1   1.0000     -28.986956      -788.7752 
   2   1.0000     -24.947842      -678.8653 
   3   1.0000     -24.947842      -678.8653 
   4   1.0000     -24.947842      -678.8653 
   5   1.0000     -23.570009      -641.3726 
   6   1.0000     -23.569865      -641.3686 
   7   1.0000     -23.569864      -641.3686 
   8   1.0000     -23.569864      -641.3686 
   9   1.0000     -23.569716      -641.3646 
  10   1.0000     -23.569715      -641.3645 
  11   1.0000      -2.632156       -71.6246 
  12   1.0000      -1.447706       -39.3941 
  13   1.0000      -1.447706       -39.3941 
  14   1.0000      -1.447706       -39.3941 
  15   1.0000      -0.330934        -9.0052 
  16   1.0000      -0.317388        -8.6366 
  17   1.0000      -0.317387        -8.6365 
  18   1.0000      -0.317386        -8.6365 
  19   1.0000      -0.315465        -8.5842 
  20   1.0000      -0.315464        -8.5842 
  21   1.0000       0.268509         7.3065 
  22   1.0000       0.293622         7.9899 
  23   1.0000       0.293623         7.9899 
  24   1.0000       0.306366         8.3366 
  25   1.0000       0.306366         8.3367 
  26   1.0000       0.306367         8.3367 
  27   1.0000       0.313980         8.5438 
  28   1.0000       0.313981         8.5438 
  29   1.0000       0.313981         8.5439 
  30   1.0000       0.351239         9.5577 
  31   1.0000       0.351239         9.5577 
  32   1.0000       0.351240         9.5577 
  33   1.0000       0.351975         9.5777 
  34   1.0000       0.351975         9.5777 
  35   1.0000       0.351975         9.5777 
  36   1.0000       0.364280         9.9126 
  37   1.0000       0.364280         9.9126 
  38   1.0000       0.364281         9.9126 
  39   0.0000       0.480182        13.0664 
  40   0.0000       0.480182        13.0664 
  41   0.0000       0.480182        13.0664 
  42   0.0000       0.522995        14.2314 
  43   0.0000       0.530937        14.4475 
  44   0.0000       0.530938        14.4475 
  45   0.0000       0.823102        22.3977 
  46   0.0000       0.900085        24.4926 
  47   0.0000       0.900087        24.4926 
  48   0.0000       0.900089        24.4927 
  49   0.0000       1.454905        39.5900 
  50   0.0000       1.454905        39.5900 
  51   0.0000       1.454905        39.5900 
  52   0.0000       1.619603        44.0716 
  53   0.0000       1.619604        44.0717 
  54   0.0000       1.662841        45.2482 
  55   0.0000       1.662841        45.2482 
  56   0.0000       1.662842        45.2482 
  57   0.0000       1.730414        47.0870 
  58   0.0000       1.730416        47.0870 
  59   0.0000       1.730418        47.0871 
  60   0.0000       1.797994        48.9259 
  61   0.0000       1.815844        49.4116 
  62   0.0000       1.815850        49.4118 
  63   0.0000       1.837632        50.0045 
  64   0.0000       1.837633        50.0045 
  65   0.0000       1.837634        50.0046 
  66   0.0000       1.841807        50.1181 
  67   0.0000       1.841809        50.1182 
  68   0.0000       1.841812        50.1182 
  69   0.0000       1.885001        51.2935 
  70   0.0000       1.885001        51.2935 
  71   0.0000       1.885002        51.2935 
  72   0.0000       2.292654        62.3863 
  73   0.0000       2.292656        62.3863 
  74   0.0000       2.390874        65.0590 
  75   0.0000       2.390877        65.0591 
  76   0.0000       2.390880        65.0592 
  77   0.0000       2.706867        73.6576 
  78   0.0000       3.639594        99.0384 
  79   0.0000       3.639596        99.0384 
  80   0.0000       3.639597        99.0385 
  81   0.0000       3.649572        99.3099 
  82   0.0000       3.649572        99.3099 
  83   0.0000       3.649573        99.3099 
  84   0.0000       3.651004        99.3489 
  85   0.0000       3.651005        99.3489 
  86   0.0000       3.651005        99.3489 
  87   0.0000       3.662133        99.6517 
  88   0.0000       3.662134        99.6517 
  89   0.0000       3.662134        99.6517 
  90   0.0000       3.662271        99.6555 
  91   0.0000       3.662297        99.6562 
  92   0.0000       3.662298        99.6562 
  93   0.0000       3.675607       100.0184 
  94   0.0000       3.675994       100.0289 
  95   0.0000       3.675995       100.0289 
  96   0.0000       3.675996       100.0289 
  97   0.0000       3.676047       100.0303 
  98   0.0000       3.676048       100.0304 
  99   0.0000       3.765489       102.4642 
 100   0.0000       3.770866       102.6105 
 101   0.0000       3.770867       102.6105 
 102   0.0000       3.770869       102.6106 
 103   0.0000       3.800118       103.4065 
 104   0.0000       3.800120       103.4065 
 105   0.0000       3.800122       103.4066 
 106   0.0000       4.138093       112.6032 
 107   0.0000       4.138103       112.6035 
 108   0.0000       4.637843       126.2021 
 109   0.0000       4.642887       126.3394 
 110   0.0000       4.642887       126.3394 
 111   0.0000       4.642888       126.3394 
 112   0.0000       4.750033       129.2550 
 113   0.0000       4.750037       129.2551 
 114   0.0000       4.750040       129.2552 

                    ********************************
                    * MULLIKEN POPULATION ANALYSIS *
                    ********************************

--------------------------------------------
MULLIKEN ATOMIC CHARGES AND SPIN POPULATIONS
--------------------------------------------
   0 Fe:    0.886123    4.261592
   1 F :   -0.647678    0.123076
   2 F :   -0.647700    0.123058
   3 F :   -0.647682    0.123073
   4 F :   -0.647693    0.123064
   5 F :   -0.647686    0.123069
   6 F :   -0.647686    0.123069
Sum of atomic charges         :   -3.0000000
Sum of atomic spin populations:    5.0000000

-----------------------------------------------------
MULLIKEN REDUCED ORBITAL CHARGES AND SPIN POPULATIONS
-----------------------------------------------------
CHARGE
  0 Fes       :     6.483780  s :     6.483780
      pz      :     4.244113  p :    12.732341
      px      :     4.244115
      py      :     4.244114
      dz2     :     1.261354  d :     5.896140
      dxz     :     1.124477
      dyz     :     1.124478
      dx2y2   :     1.261354
      dxy     :     1.124477
      f0      :     0.000411  f :     0.001615
      f+1     :     0.000234
      f-1     :     0.000234
      f+2     :     0.000128
      f-2     :     0.000000
      f+3     :     0.000305
      f-3     :     0.000305
  1 F s       :     3.949216  s :     3.949216
      pz      :     1.944232  p :     5.697780
      px      :     1.809316
      py      :     1.944232
      dz2     :     0.000094  d :     0.000681
      dxz     :     0.000162
      dyz     :     0.000004
      dx2y2   :     0.000258
      dxy     :     0.000162
  2 F s       :     3.949223  s :     3.949223
      pz      :     1.944240  p :     5.697797
      px      :     1.809316
      py      :     1.944240
      dz2     :     0.000094  d :     0.000681
      dxz     :     0.000162
      dyz     :     0.000004
      dx2y2   :     0.000258
      dxy     :     0.000162
  3 F s       :     3.949218  s :     3.949218
      pz      :     1.944233  p :     5.697783
      px      :     1.944234
      py      :     1.809317
      dz2     :     0.000094  d :     0.000681
      dxz     :     0.000004
      dyz     :     0.000162
      dx2y2   :     0.000258
      dxy     :     0.000162
  4 F s       :     3.949221  s :     3.949221
      pz      :     1.944238  p :     5.697791
      px      :     1.944237
      py      :     1.809317
      dz2     :     0.000094  d :     0.000681
      dxz     :     0.000004
      dyz     :     0.000162
      dx2y2   :     0.000258
      dxy     :     0.000162
  5 F s       :     3.949219  s :     3.949219
      pz      :     1.809317  p :     5.697786
      px      :     1.944234
      py      :     1.944235
      dz2     :     0.000340  d :     0.000681
      dxz     :     0.000162
      dyz     :     0.000162
      dx2y2   :     0.000012
      dxy     :     0.000004
  6 F s       :     3.949219  s :     3.949219
      pz      :     1.809317  p :     5.697786
      px      :     1.944234
      py      :     1.944235
      dz2     :     0.000340  d :     0.000681
      dxz     :     0.000162
      dyz     :     0.000162
      dx2y2   :     0.000012
      dxy     :     0.000004

SPIN
  0 Fes       :     0.024656  s :     0.024656
      pz      :     0.006892  p :     0.020674
      px      :     0.006891
      py      :     0.006891
      dz2     :     0.773967  d :     4.216153
      dxz     :     0.889406
      dyz     :     0.889406
      dx2y2   :     0.773966
      dxy     :     0.889407
      f0      :     0.000027  f :     0.000108
      f+1     :     0.000016
      f-1     :     0.000016
      f+2     :     0.000009
      f-2     :     0.000000
      f+3     :     0.000020
      f-3     :     0.000020
  1 F s       :     0.000908  s :     0.000908
      pz      :     0.027089  p :     0.122034
      px      :     0.067855
      py      :     0.027090
      dz2     :     0.000014  d :     0.000135
      dxz     :     0.000039
      dyz     :     0.000001
      dx2y2   :     0.000041
      dxy     :     0.000039
  2 F s       :     0.000907  s :     0.000907
      pz      :     0.027084  p :     0.122016
      px      :     0.067847
      py      :     0.027084
      dz2     :     0.000014  d :     0.000135
      dxz     :     0.000039
      dyz     :     0.000001
      dx2y2   :     0.000041
      dxy     :     0.000039
  3 F s       :     0.000908  s :     0.000908
      pz      :     0.027089  p :     0.122030
      px      :     0.027089
      py      :     0.067853
      dz2     :     0.000014  d :     0.000135
      dxz     :     0.000001
      dyz     :     0.000039
      dx2y2   :     0.000041
      dxy     :     0.000039
  4 F s       :     0.000907  s :     0.000907
      pz      :     0.027086  p :     0.122021
      px      :     0.027087
      py      :     0.067849
      dz2     :     0.000014  d :     0.000135
      dxz     :     0.000001
      dyz     :     0.000039
      dx2y2   :     0.000041
      dxy     :     0.000039
  5 F s       :     0.000908  s :     0.000908
      pz      :     0.067850  p :     0.122026
      px      :     0.027088
      py      :     0.027088
      dz2     :     0.000055  d :     0.000135
      dxz     :     0.000039
      dyz     :     0.000039
      dx2y2   :    -0.000000
      dxy     :     0.000001
  6 F s       :     0.000908  s :     0.000908
      pz      :     0.067850  p :     0.122026
      px      :     0.027088
      py      :     0.027088
      dz2     :     0.000055  d :     0.000135
      dxz     :     0.000039
      dyz     :     0.000039
      dx2y2   :    -0.000000
      dxy     :     0.000001


                     *******************************
                     * LOEWDIN POPULATION ANALYSIS *
                     *******************************

-------------------------------------------
LOEWDIN ATOMIC CHARGES AND SPIN POPULATIONS
-------------------------------------------
   0 Fe:    0.534675    4.211255
   1 F :   -0.589096    0.131466
   2 F :   -0.589135    0.131447
   3 F :   -0.589103    0.131462
   4 F :   -0.589122    0.131453
   5 F :   -0.589110    0.131458
   6 F :   -0.589110    0.131458

----------------------------------------------------
LOEWDIN REDUCED ORBITAL CHARGES AND SPIN POPULATIONS
----------------------------------------------------
CHARGE
  0 Fes       :     6.459186  s :     6.459186
      pz      :     4.306003  p :    12.918010
      px      :     4.306003
      py      :     4.306003
      dz2     :     1.335592  d :     6.085296
      dxz     :     1.138038
      dyz     :     1.138038
      dx2y2   :     1.335591
      dxy     :     1.138037
      f0      :     0.000757  f :     0.002833
      f+1     :     0.000401
      f-1     :     0.000401
      f+2     :     0.000188
      f-2     :     0.000000
      f+3     :     0.000543
      f-3     :     0.000543
  1 F s       :     3.882036  s :     3.882036
      pz      :     1.943498  p :     5.705987
      px      :     1.818991
      py      :     1.943498
      dz2     :     0.000167  d :     0.001073
      dxz     :     0.000212
      dyz     :     0.000004
      dx2y2   :     0.000478
      dxy     :     0.000212
  2 F s       :     3.882055  s :     3.882055
      pz      :     1.943508  p :     5.706007
      px      :     1.818991
      py      :     1.943508
      dz2     :     0.000167  d :     0.001072
      dxz     :     0.000211
      dyz     :     0.000004
      dx2y2   :     0.000478
      dxy     :     0.000211
  3 F s       :     3.882039  s :     3.882039
      pz      :     1.943499  p :     5.705991
      px      :     1.943500
      py      :     1.818992
      dz2     :     0.000167  d :     0.001073
      dxz     :     0.000004
      dyz     :     0.000212
      dx2y2   :     0.000478
      dxy     :     0.000212
  4 F s       :     3.882049  s :     3.882049
      pz      :     1.943505  p :     5.706001
      px      :     1.943504
      py      :     1.818992
      dz2     :     0.000167  d :     0.001073
      dxz     :     0.000004
      dyz     :     0.000211
      dx2y2   :     0.000478
      dxy     :     0.000211
  5 F s       :     3.882043  s :     3.882043
      pz      :     1.818993  p :     5.705994
      px      :     1.943501
      py      :     1.943501
      dz2     :     0.000633  d :     0.001073
      dxz     :     0.000212
      dyz     :     0.000212
      dx2y2   :     0.000012
      dxy     :     0.000004
  6 F s       :     3.882043  s :     3.882043
      pz      :     1.818993  p :     5.705994
      px      :     1.943501
      py      :     1.943501
      dz2     :     0.000633  d :     0.001073
      dxz     :     0.000212
      dyz     :     0.000212
      dx2y2   :     0.000012
      dxy     :     0.000004

SPIN
  0 Fes       :     0.010639  s :     0.010639
      pz      :     0.002914  p :     0.008743
      px      :     0.002914
      py      :     0.002914
      dz2     :     0.767006  d :     4.191801
      dxz     :     0.885930
      dyz     :     0.885929
      dx2y2   :     0.767005
      dxy     :     0.885930
      f0      :     0.000017  f :     0.000073
      f+1     :     0.000011
      f-1     :     0.000011
      f+2     :     0.000007
      f-2     :     0.000000
      f+3     :     0.000013
      f-3     :     0.000013
  1 F s       :     0.003275  s :     0.003275
      pz      :     0.028140  p :     0.127728
      px      :     0.071449
      py      :     0.028140
      dz2     :     0.000077  d :     0.000463
      dxz     :     0.000078
      dyz     :     0.000002
      dx2y2   :     0.000229
      dxy     :     0.000078
  2 F s       :     0.003275  s :     0.003275
      pz      :     0.028134  p :     0.127710
      px      :     0.071441
      py      :     0.028134
      dz2     :     0.000076  d :     0.000463
      dxz     :     0.000078
      dyz     :     0.000002
      dx2y2   :     0.000229
      dxy     :     0.000078
  3 F s       :     0.003275  s :     0.003275
      pz      :     0.028139  p :     0.127724
      px      :     0.028139
      py      :     0.071447
      dz2     :     0.000077  d :     0.000463
      dxz     :     0.000002
      dyz     :     0.000078
      dx2y2   :     0.000229
      dxy     :     0.000078
  4 F s       :     0.003275  s :     0.003275
      pz      :     0.028135  p :     0.127715
      px      :     0.028137
      py      :     0.071443
      dz2     :     0.000076  d :     0.000463
      dxz     :     0.000002
      dyz     :     0.000078
      dx2y2   :     0.000229
      dxy     :     0.000078
  5 F s       :     0.003275  s :     0.003275
      pz      :     0.071444  p :     0.127720
      px      :     0.028138
      py      :     0.028138
      dz2     :     0.000305  d :     0.000463
      dxz     :     0.000078
      dyz     :     0.000078
      dx2y2   :     0.000000
      dxy     :     0.000002
  6 F s       :     0.003275  s :     0.003275
      pz      :     0.071444  p :     0.127720
      px      :     0.028138
      py      :     0.028138
      dz2     :     0.000305  d :     0.000463
      dxz     :     0.000078
      dyz     :     0.000078
      dx2y2   :     0.000000
      dxy     :     0.000002


                      *****************************
                      * MAYER POPULATION ANALYSIS *
                      *****************************

  NA   - Mulliken gross atomic population
  ZA   - Total nuclear charge
  QA   - Mulliken gross atomic charge
  VA   - Mayer's total valence
  BVA  - Mayer's bonded valence
  FA   - Mayer's free valence

  ATOM       NA         ZA         QA         VA         BVA        FA
  0 Fe    25.1139    26.0000     0.8861     7.1623     3.5527     3.6096
  1 F      9.6477     9.0000    -0.6477     0.6381     0.6308     0.0073
  2 F      9.6477     9.0000    -0.6477     0.6381     0.6308     0.0073
  3 F      9.6477     9.0000    -0.6477     0.6381     0.6308     0.0073
  4 F      9.6477     9.0000    -0.6477     0.6381     0.6308     0.0073
  5 F      9.6477     9.0000    -0.6477     0.6381     0.6308     0.0073
  6 F      9.6477     9.0000    -0.6477     0.6381     0.6308     0.0073

  Mayer bond orders larger than 0.1
B(  0-Fe,  1-F ) :   0.5921 B(  0-Fe,  2-F ) :   0.5921 B(  0-Fe,  3-F ) :   0.5921 
B(  0-Fe,  4-F ) :   0.5921 B(  0-Fe,  5-F ) :   0.5921 B(  0-Fe,  6-F ) :   0.5921 


-------
TIMINGS
-------

Total SCF time: 0 days 0 hours 0 min 5 sec 

Total time                  ....       5.190 sec
Sum of individual times     ....       5.080 sec  ( 97.9%)

Fock matrix formation       ....       4.369 sec  ( 84.2%)
  Split-RI-J                ....       2.522 sec  ( 57.7% of F)
  XC integration            ....       1.828 sec  ( 41.8% of F)
    Basis function eval.    ....       0.504 sec  ( 27.6% of XC)
    Density eval.           ....       0.429 sec  ( 23.5% of XC)
    XC-Functional eval.     ....       0.224 sec  ( 12.3% of XC)
    XC-Potential eval.      ....       0.622 sec  ( 34.0% of XC)
Diagonalization             ....       0.041 sec  (  0.8%)
Density matrix formation    ....       0.005 sec  (  0.1%)
Population analysis         ....       0.003 sec  (  0.1%)
Initial guess               ....       0.166 sec  (  3.2%)
Orbital Transformation      ....       0.000 sec  (  0.0%)
Orbital Orthonormalization  ....       0.000 sec  (  0.0%)
DIIS solution               ....       0.015 sec  (  0.3%)
Grid generation             ....       0.480 sec  (  9.2%)

-------------------------   --------------------
FINAL SINGLE POINT ENERGY     -1862.104330496593
-------------------------   --------------------


                            ***************************************
                            *     ORCA property calculations      *
                            ***************************************

                                    ---------------------
                                    Active property flags
                                    ---------------------
   (+) Dipole Moment
   (+) Nuclear properties (Hyperfine,Quadrupole)


------------------------------------------------------------------------------
                       ORCA ELECTRIC PROPERTIES CALCULATION
------------------------------------------------------------------------------

Dipole Moment Calculation                       ... on
Quadrupole Moment Calculation                   ... off
Polarizability Calculation                      ... off
GBWName                                         ... moess.gbw
Electron density file                           ... moess.scfp.tmp
The origin for moment calculation is the CENTER OF MASS  = ( 0.000004,  0.000002  0.000000)

-------------
DIPOLE MOMENT
-------------
                                X             Y             Z
Electronic contribution:      0.00015       0.00007       0.00000
Nuclear contribution   :     -0.00001      -0.00000       0.00000
                        -----------------------------------------
Total Dipole Moment    :      0.00014       0.00007       0.00000
                        -----------------------------------------
Magnitude (a.u.)       :      0.00015
Magnitude (Debye)      :      0.00039



--------------------
Rotational spectrum 
--------------------
 
Rotational constants in cm-1:     0.056715     0.056714     0.056714 
Rotational constants in MHz :  1700.263074  1700.254657  1700.246200 

 Dipole components along the rotational axes: 
x,y,z [a.u.] :     0.000126    -0.000064     0.000064 
x,y,z [Debye]:     0.000320    -0.000162     0.000163 

 
------------------------------------------------------------------------------
                                ORCA EPR/NMR CALCULATION
------------------------------------------------------------------------------

GBWName                      ... moess.gbw
Electron density file        ... moess.scfp.tmp
Spin density file            ... moess.scfr.tmp
Multiplicity                 ... 6
g-tensor                     ... 0
NMR chemical shifts          ... 0
Number of nuclei for epr/nmr ... 1
   Nucleus:   0Fe
       Hyperfine : Isotope=   57 I=   0.500 P=  17.280
       Quadrupole: Isotope=   57 I=   0.500 Q=   0.160
       Spin-Orbit: Zeff=  13.910
       Ncuelar Spin-Spin: Gn=   0.000
       rho(0)=Y f(grad)=Y a(iso)=N a(dip)=N a(orb)=N sigma(nmr)=N spin-spin(nmr)=all-N,DSO-N,PSO-N,FC-N,SD-N

-----------------------------------------
ELECTRIC AND MAGNETIC HYPERFINE STRUCTURE
-----------------------------------------

 -----------------------------------------------------------
 Nucleus   0Fe: A:ISTP=   57 I=  0.5 P= 17.2798 MHz/au**3
                Q:ISTP=   57 I=  0.5 Q=  0.1600 barn     
 -----------------------------------------------------------
 Raw EFG matrix (all values in a.u.**-3):
             0.0000      -0.0000       0.0000
            -0.0000      -0.0000       0.0000
             0.0000       0.0000      -0.0000

 V(El)      -0.0000      -0.0000       0.0000
 V(Nuc)     -0.0000       0.0000      -0.0000
         ----------   ----------   ----------
 V(Tot)     -0.0000      -0.0000       0.0000 
 Orientation: 
  X      -0.0049130    0.1386070   -0.9903353
  Y       0.9997941    0.0201781   -0.0021359
  Z       0.0196870   -0.9901419   -0.1386776

Note: Tensor is right-handed

Moessbauer quadrupole splitting parameter (proper coordinate system)
 e**2qQ  =    0.001 MHz =    0.000 mm/s
 eta     =  0.835
 Delta-EQ=(1/2{e**2qQ}*sqrt(1+1/3*eta**2) =    0.001 MHz =    0.000 mm/s
 RHO(0)=  11190.078146961 a.u.**-3


------------------------------------------------------------------------------- 

Timings for individual modules:

Sum of individual times         ...        5.502 sec (=   0.092 min)
GTO integral calculation        ...        0.168 sec (=   0.003 min)   3.1 %
SCF iterations                  ...        5.213 sec (=   0.087 min)  94.8 %
EPR/NMR calculation             ...        0.120 sec (=   0.002 min)   2.2 %
                             ****ORCA TERMINATED NORMALLY****
TOTAL RUN TIME: 0 days 0 hours 0 minutes 5 seconds 624 msec
