
                                 *****************
                                 * O   R   C   A *
                                 *****************

           --- An Ab Initio, DFT and Semiempirical electronic structure package ---

                  #######################################################
                  #                        -***-                        #
                  #          Department of theory and spectroscopy      #
                  #               Directorship: Frank Neese             #
                  #        Max Planck Institute fuer Kohlenforschung    #
                  #                Kaiser Wilhelm Platz 1               #
                  #                 D-45470 Muelheim/Ruhr               #
                  #                      Germany                        #
                  #                                                     #
                  #                  All rights reserved                #
                  #                        -***-                        #
                  #######################################################


                         Program Version 4.1.2  - RELEASE  -


 With contributions from (in alphabetic order):
   Daniel Aravena         : Magnetic Properties
   Michael Atanasov       : Ab Initio Ligand Field Theory
   Alexander A. Auer      : GIAO ZORA
   Ute Becker             : Parallelization
   Giovanni Bistoni       : ED, Open-shell LED
   Martin Brehm           : Molecular dynamics
   Dmytro Bykov           : SCF Hessian
   Vijay G. Chilkuri      : MRCI spin determinant printing
   Dipayan Datta          : RHF DLPNO-CCSD density
   Achintya Kumar Dutta   : EOM-CC, STEOM-CC
   Dmitry Ganyushin       : Spin-Orbit,Spin-Spin,Magnetic field MRCI
   Miquel Garcia          : C-PCM Hessian
   Yang Guo               : DLPNO-NEVPT2, CIM, IAO-localization
   Andreas Hansen         : Spin unrestricted coupled pair/coupled cluster methods
   Benjamin Helmich-Paris : CASSCF linear response (MC-RPA)
   Lee Huntington         : MR-EOM, pCC
   Robert Izsak           : Overlap fitted RIJCOSX, COSX-SCS-MP3, EOM
   Christian Kollmar      : KDIIS, OOCD, Brueckner-CCSD(T), CCSD density
   Simone Kossmann        : Meta GGA functionals, TD-DFT gradient, OOMP2, MP2 Hessian
   Martin Krupicka        : AUTO-CI
   Lucas Lang             : DCDCAS
   Dagmar Lenk            : GEPOL surface, SMD
   Dimitrios Liakos       : Extrapolation schemes; parallel MDCI
   Dimitrios Manganas     : ROCIS; embedding schemes
   Dimitrios Pantazis     : SARC Basis sets
   Taras Petrenko         : DFT Hessian,TD-DFT gradient, ASA, ECA, R-Raman, ABS, FL, XAS/XES, NRVS
   Peter Pinski           : DLPNO-MP2, DLPNO-MP2 Gradient
   Christoph Reimann      : Effective Core Potentials
   Marius Retegan         : Local ZFS, SOC
   Christoph Riplinger    : Optimizer, TS searches, QM/MM, DLPNO-CCSD(T), (RO)-DLPNO pert. Triples
   Tobias Risthaus        : Range-separated hybrids, TD-DFT gradient, RPA, STAB
   Michael Roemelt        : Restricted open shell CIS
   Masaaki Saitow         : Open-shell DLPNO
   Barbara Sandhoefer     : DKH picture change effects
   Avijit Sen             : IP-ROCIS
   Kantharuban Sivalingam : CASSCF convergence, NEVPT2, FIC-MRCI
   Bernardo de Souza      : ESD, SOC TD-DFT
   Georgi Stoychev        : AutoAux, RI-MP2 NMR
   Willem Van den Heuvel  : Paramagnetic NMR
   Boris Wezisla          : Elementary symmetry handling
   Frank Wennmohs         : Technical directorship


 We gratefully acknowledge several colleagues who have allowed us to
 interface, adapt or use parts of their codes:
   Stefan Grimme, W. Hujo, H. Kruse,             : VdW corrections, initial TS optimization,
                  C. Bannwarth                     DFT functionals, gCP, sTDA/sTD-DF
   Ed Valeev                                     : LibInt (2-el integral package), F12 methods
   Garnet Chan, S. Sharma, J. Yang, R. Olivares  : DMRG
   Ulf Ekstrom                                   : XCFun DFT Library
   Mihaly Kallay                                 : mrcc  (arbitrary order and MRCC methods)
   Andreas Klamt, Michael Diedenhofen            : otool_cosmo (COSMO solvation model)
   Jiri Pittner, Ondrej Demel                    : Mk-CCSD
   Frank Weinhold                                : gennbo (NPA and NBO analysis)
   Christopher J. Cramer and Donald G. Truhlar   : smd solvation model
   Lars Goerigk                                  : TD-DFT with DH, B97 family of functionals
   V. Asgeirsson, H. Jonsson                     : NEB implementation
   FAccTs GmbH                                   : IRC, NEB, NEB-TS, Multilevel


 Your calculation uses the libint2 library for the computation of 2-el integrals
 For citations please refer to: http://libint.valeyev.net

 This ORCA versions uses:
   CBLAS   interface :  Fast vector & matrix operations
   LAPACKE interface :  Fast linear algebra routines
   SCALAPACK package :  Parallel linear algebra routines




***************************************
The coordinates will be read from file: geom.xyz
***************************************


----- Orbital basis set information -----
Your calculation utilizes the basis: def2-SVP
   F. Weigend and R. Ahlrichs, Phys. Chem. Chem. Phys. 7, 3297 (2005).

----- AuxJ basis set information -----
Your calculation utilizes the auxiliary basis: def2/J
   F. Weigend, Phys. Chem. Chem. Phys. 8, 1057 (2006).

================================================================================
                                        WARNINGS
                       Please study these warnings very carefully!
================================================================================


WARNING: your system is open-shell and RHF/RKS was chosen
  ===> : WILL SWITCH to UHF/UKS


INFO   : the flag for use of LIBINT has been found!

================================================================================
                                       INPUT FILE
================================================================================
NAME = moess.inp
|  1> ! bp86 def2-svp
|  2> 
|  3> * xyzfile  -1 5 geom.xyz
|  4> 
|  5> %eprnmr
|  6> nuclei = all Fe {fgrad, rho}
|  7> end
|  8> 
|  9> 
| 10>                          ****END OF INPUT****
================================================================================

                       ****************************
                       * Single Point Calculation *
                       ****************************

---------------------------------
CARTESIAN COORDINATES (ANGSTROEM)
---------------------------------
  Fe     0.012468    0.040095   -0.115781
  N     -1.509401   -1.283435    0.666408
  C     -2.865056   -1.022878    0.677476
  C     -3.602725   -2.231582    0.962409
  C     -2.679160   -3.227207    1.132978
  C     -1.377241   -2.625381    0.952510
  C     -0.153001   -3.287908    1.100912
  C      1.114706   -2.713647    0.981108
  C      2.357307   -3.419315    1.210647
  C      3.365578   -2.512976    1.036651
  C      2.737714   -1.245696    0.720132
  N      1.366579   -1.394296    0.670192
  C      3.427074   -0.038746    0.578998
  C      2.859122    1.233075    0.401199
  C      3.582886    2.481889    0.399867
  C      2.651555    3.477936    0.242827
  C      1.361238    2.831480    0.147868
  N      1.513251    1.467801    0.242076
  C      0.128078    3.490157    0.035095
  C     -1.145551    2.912050    0.074991
  C     -2.386915    3.661502    0.083683
  C     -3.397410    2.753065    0.237375
  C     -2.776453    1.446806    0.316680
  N     -1.410112    1.563464    0.197653
  C     -3.451529    0.241094    0.510532
  O      0.104556    0.277136   -2.149740
  O      0.118537   -1.917390   -2.661132
  C      0.119552   -0.716476   -2.989521
  C      0.136925   -0.320781   -4.468609
  H     -4.462764    2.940022    0.311059
  H     -2.466281    4.739135    0.001499
  H     -4.681400   -2.304286    1.040334
  H     -2.865388   -4.266829    1.376413
  H      2.428072   -4.465455    1.486082
  H      4.433625   -2.664438    1.142476
  H      2.817228    4.548329    0.201821
  H      4.655470    2.582799    0.519642
  H      1.019767    0.288457   -4.690862
  H     -0.743831    0.284572   -4.708194
  H      0.145585   -1.211164   -5.100438
  H     -0.187685   -4.344103    1.357310
  H     -4.535766    0.289896    0.578471
  H      4.508795   -0.085881    0.679252
  H      0.165189    4.575207   -0.029586

----------------------------
CARTESIAN COORDINATES (A.U.)
----------------------------
  NO LB      ZA    FRAG     MASS         X           Y           Z
   0 Fe   26.0000    0    55.850    0.023561    0.075769   -0.218794
   1 N     7.0000    0    14.007   -2.852355   -2.425341    1.259329
   2 C     6.0000    0    12.011   -5.414171   -1.932959    1.280244
   3 C     6.0000    0    12.011   -6.808164   -4.217079    1.818689
   4 C     6.0000    0    12.011   -5.062879   -6.098537    2.141018
   5 C     6.0000    0    12.011   -2.602608   -4.961251    1.799983
   6 C     6.0000    0    12.011   -0.289130   -6.213246    2.080422
   7 C     6.0000    0    12.011    2.106489   -5.128050    1.854025
   8 C     6.0000    0    12.011    4.454665   -6.461569    2.287791
   9 C     6.0000    0    12.011    6.360021   -4.748836    1.958986
  10 C     6.0000    0    12.011    5.173530   -2.354024    1.360852
  11 N     7.0000    0    14.007    2.582460   -2.634838    1.266479
  12 C     6.0000    0    12.011    6.476231   -0.073219    1.094148
  13 C     6.0000    0    12.011    5.402958    2.330174    0.758156
  14 C     6.0000    0    12.011    6.770673    4.690091    0.755639
  15 C     6.0000    0    12.011    5.010713    6.572347    0.458877
  16 C     6.0000    0    12.011    2.572367    5.350722    0.279430
  17 N     7.0000    0    14.007    2.859630    2.773742    0.457457
  18 C     6.0000    0    12.011    0.242032    6.595441    0.066320
  19 C     6.0000    0    12.011   -2.164778    5.502977    0.141712
  20 C     6.0000    0    12.011   -4.510616    6.919236    0.158138
  21 C     6.0000    0    12.011   -6.420174    5.202539    0.448574
  22 C     6.0000    0    12.011   -5.246736    2.734067    0.598438
  23 N     7.0000    0    14.007   -2.664725    2.954519    0.373510
  24 C     6.0000    0    12.011   -6.522445    0.455602    0.964766
  25 O     8.0000    0    15.999    0.197582    0.523711   -4.062420
  26 O     8.0000    0    15.999    0.224002   -3.623342   -5.028811
  27 C     6.0000    0    12.011    0.225921   -1.353943   -5.649376
  28 C     6.0000    0    12.011    0.258751   -0.606188   -8.444447
  29 H     1.0000    0     1.008   -8.433402    5.555836    0.587816
  30 H     1.0000    0     1.008   -4.660596    8.955667    0.002833
  31 H     1.0000    0     1.008   -8.846564   -4.354469    1.965946
  32 H     1.0000    0     1.008   -5.414799   -8.063138    2.601044
  33 H     1.0000    0     1.008    4.588391   -8.438487    2.808288
  34 H     1.0000    0     1.008    8.378337   -5.035058    2.158967
  35 H     1.0000    0     1.008    5.323789    8.595096    0.381386
  36 H     1.0000    0     1.008    8.797563    4.880783    0.981981
  37 H     1.0000    0     1.008    1.927080    0.545105   -8.864445
  38 H     1.0000    0     1.008   -1.405637    0.537763   -8.897197
  39 H     1.0000    0     1.008    0.275116   -2.288768   -9.638431
  40 H     1.0000    0     1.008   -0.354673   -8.209165    2.564944
  41 H     1.0000    0     1.008   -8.571356    0.547824    1.093152
  42 H     1.0000    0     1.008    8.520388   -0.162292    1.283600
  43 H     1.0000    0     1.008    0.312162    8.645888   -0.055909

--------------------------------
INTERNAL COORDINATES (ANGSTROEM)
--------------------------------
 Fe     0   0   0     0.000000000000     0.00000000     0.00000000
 N      1   0   0     2.163246760262     0.00000000     0.00000000
 C      2   1   0     1.380511836204   125.32879393     0.00000000
 C      3   2   1     1.444405665894   110.19114608   166.01444365
 C      4   3   2     1.368698372035   106.77966710     0.39123864
 C      2   1   3     1.378455544049   127.10076368   163.85829712
 C      6   2   1     1.399903124124   124.51198436    16.81264479
 C      7   6   2     1.396857090896   126.15740484   359.72454132
 C      8   7   6     1.447312241345   124.41131707   176.63551872
 C      9   8   7     1.366870659711   106.84771387   181.86949902
 C     10   9   8     1.449274328158   106.74072568     0.85361206
 N      8   7   6     1.378693522283   125.34893183   358.72598588
 C     11  10   9     1.397091377848   124.31305102   174.47842382
 C     13  11  10     1.404176133804   126.56155351   186.56125659
 C     14  13  11     1.443389243592   125.51696710   172.99762937
 C     15  14  13     1.372642932219   106.72075607   182.06657795
 C     16  15  14     1.446319650736   106.76728879   359.95987439
 N     17  16  15     1.375355777417   109.88110772   359.81971500
 C     17  16  15     1.402589293221   125.43275109   177.25046445
 C     19  17  16     1.399260598997   127.15326307   186.91071760
 C     20  19  17     1.450082215484   124.46087834   173.66647102
 C     21  20  19     1.367471812820   106.85323344   184.89353288
 C     22  21  20     1.448512842178   106.76538518   359.74257820
 N     23  22  21     1.376468032311   110.14328831   359.34775649
 C     23  22  21     1.395366486133   125.41063106   178.22937668
 O      1   2   3     2.049794587052   117.46105544   289.06145886
 O     26   1   2     2.253366727965    96.47960621   309.55585858
 C     27  26   1     1.245003936115    28.41387415   178.20418346
 C     28  27  26     1.531201379929   120.26945551   180.10800135
 H     22  21  20     1.084140856633   128.25955991   178.51745830
 H     21  20  19     1.083672484887   125.18340442     3.82152267
 H      4   3   2     1.083927088353   125.34820209   179.28449401
 H      5   4   3     1.083861324198   127.57391353   178.88240635
 H      9   8   7     1.084103788412   124.52974099     0.79060220
 H     10   9   8     1.083911464225   128.44540586   178.73025114
 H     16  15  14     1.083914299848   128.11282714   179.52328081
 H     15  14  13     1.083958170679   125.21278251     1.10091492
 H     29  28  27     1.095434769220   110.41716670   239.17185512
 H     29  28  27     1.095255384999   110.18239882   120.89767471
 H     29  28  27     1.091817185947   110.38614553     0.08209355
 H      7   6   2     1.087423924826   117.17932484   178.14151914
 H     25  23  22     1.087459063641   116.88920896     1.85128250
 H     13  11  10     1.087378910308   116.36551785     2.48603101
 H     19  17  16     1.087609470620   116.31409499     2.87172220

---------------------------
INTERNAL COORDINATES (A.U.)
---------------------------
 Fe     0   0   0     0.000000000000     0.00000000     0.00000000
 N      1   0   0     4.087943936987     0.00000000     0.00000000
 C      2   1   0     2.608789295061   125.32879393     0.00000000
 C      3   2   1     2.729531134823   110.19114608   166.01444365
 C      4   3   2     2.586465083090   106.77966710     0.39123864
 C      2   1   3     2.604903466038   127.10076368   163.85829712
 C      6   2   1     2.645433518616   124.51198436    16.81264479
 C      7   6   2     2.639677350019   126.15740484   359.72454132
 C      8   7   6     2.735023766413   124.41131707   176.63551872
 C      9   8   7     2.583011207346   106.84771387   181.86949902
 C     10   9   8     2.738731573141   106.74072568     0.85361206
 N      8   7   6     2.605353179727   125.34893183   358.72598588
 C     11  10   9     2.640120088195   124.31305102   174.47842382
 C     13  11  10     2.653508336679   126.56155351   186.56125659
 C     14  13  11     2.727610375036   125.51696710   172.99762937
 C     15  14  13     2.593919221556   106.72075607   182.06657795
 C     16  15  14     2.733148042000   106.76728879   359.95987439
 N     17  16  15     2.599045756024   109.88110772   359.81971500
 C     17  16  15     2.650509642558   125.43275109   177.25046445
 C     19  17  16     2.644219322091   127.15326307   186.91071760
 C     20  19  17     2.740258258935   124.46087834   173.66647102
 C     21  20  19     2.584147222087   106.85323344   184.89353288
 C     22  21  20     2.737292573185   106.76538518   359.74257820
 N     23  22  21     2.601147613165   110.14328831   359.34775649
 C     23  22  21     2.636860515244   125.41063106   178.22937668
 O      1   2   3     3.873550400322   117.46105544   289.06145886
 O     26   1   2     4.258245995145    96.47960621   309.55585858
 C     27  26   1     2.352716474911    28.41387415   178.20418346
 C     28  27  26     2.893551263949   120.26945551   180.10800135
 H     22  21  20     2.048729309631   128.25955991   178.51745830
 H     21  20  19     2.047844215302   125.18340442     3.82152267
 H      4   3   2     2.048325346126   125.34820209   179.28449401
 H      5   4   3     2.048201069884   127.57391353   178.88240635
 H      9   8   7     2.048659260846   124.52974099     0.79060220
 H     10   9   8     2.048295820802   128.44540586   178.73025114
 H     16  15  14     2.048301179353   128.11282714   179.52328081
 H     15  14  13     2.048384083209   125.21278251     1.10091492
 H     29  28  27     2.070071711402   110.41716670   239.17185512
 H     29  28  27     2.069732724351   110.18239882   120.89767471
 H     29  28  27     2.063235469749   110.38614553     0.08209355
 H      7   6   2     2.054933409396   117.17932484   178.14151914
 H     25  23  22     2.054999812131   116.88920896     1.85128250
 H     13  11  10     2.054848344283   116.36551785     2.48603101
 H     19  17  16     2.055284040131   116.31409499     2.87172220

---------------------
BASIS SET INFORMATION
---------------------
There are 5 groups of distinct atoms

 Group   1 Type Fe  : 14s9p5d1f contracted to 5s3p2d1f pattern {63311/531/41/1}
 Group   2 Type N   : 7s4p1d contracted to 3s2p1d pattern {511/31/1}
 Group   3 Type C   : 7s4p1d contracted to 3s2p1d pattern {511/31/1}
 Group   4 Type O   : 7s4p1d contracted to 3s2p1d pattern {511/31/1}
 Group   5 Type H   : 4s1p contracted to 2s1p pattern {31/1}

Atom   0Fe   basis set group =>   1
Atom   1N    basis set group =>   2
Atom   2C    basis set group =>   3
Atom   3C    basis set group =>   3
Atom   4C    basis set group =>   3
Atom   5C    basis set group =>   3
Atom   6C    basis set group =>   3
Atom   7C    basis set group =>   3
Atom   8C    basis set group =>   3
Atom   9C    basis set group =>   3
Atom  10C    basis set group =>   3
Atom  11N    basis set group =>   2
Atom  12C    basis set group =>   3
Atom  13C    basis set group =>   3
Atom  14C    basis set group =>   3
Atom  15C    basis set group =>   3
Atom  16C    basis set group =>   3
Atom  17N    basis set group =>   2
Atom  18C    basis set group =>   3
Atom  19C    basis set group =>   3
Atom  20C    basis set group =>   3
Atom  21C    basis set group =>   3
Atom  22C    basis set group =>   3
Atom  23N    basis set group =>   2
Atom  24C    basis set group =>   3
Atom  25O    basis set group =>   4
Atom  26O    basis set group =>   4
Atom  27C    basis set group =>   3
Atom  28C    basis set group =>   3
Atom  29H    basis set group =>   5
Atom  30H    basis set group =>   5
Atom  31H    basis set group =>   5
Atom  32H    basis set group =>   5
Atom  33H    basis set group =>   5
Atom  34H    basis set group =>   5
Atom  35H    basis set group =>   5
Atom  36H    basis set group =>   5
Atom  37H    basis set group =>   5
Atom  38H    basis set group =>   5
Atom  39H    basis set group =>   5
Atom  40H    basis set group =>   5
Atom  41H    basis set group =>   5
Atom  42H    basis set group =>   5
Atom  43H    basis set group =>   5
-------------------------------
AUXILIARY BASIS SET INFORMATION
-------------------------------
There are 5 groups of distinct atoms

 Group   1 Type Fe  : 19s5p5d3f3g contracted to 8s5p5d2f3g pattern {121111111/11111/11111/21/111}
 Group   2 Type N   : 12s5p4d2f1g contracted to 6s4p3d1f1g pattern {711111/2111/211/2/1}
 Group   3 Type C   : 12s5p4d2f1g contracted to 6s4p3d1f1g pattern {711111/2111/211/2/1}
 Group   4 Type O   : 12s5p4d2f1g contracted to 6s4p3d1f1g pattern {711111/2111/211/2/1}
 Group   5 Type H   : 5s2p1d contracted to 3s1p1d pattern {311/2/1}

Atom   0Fe   basis set group =>   1
Atom   1N    basis set group =>   2
Atom   2C    basis set group =>   3
Atom   3C    basis set group =>   3
Atom   4C    basis set group =>   3
Atom   5C    basis set group =>   3
Atom   6C    basis set group =>   3
Atom   7C    basis set group =>   3
Atom   8C    basis set group =>   3
Atom   9C    basis set group =>   3
Atom  10C    basis set group =>   3
Atom  11N    basis set group =>   2
Atom  12C    basis set group =>   3
Atom  13C    basis set group =>   3
Atom  14C    basis set group =>   3
Atom  15C    basis set group =>   3
Atom  16C    basis set group =>   3
Atom  17N    basis set group =>   2
Atom  18C    basis set group =>   3
Atom  19C    basis set group =>   3
Atom  20C    basis set group =>   3
Atom  21C    basis set group =>   3
Atom  22C    basis set group =>   3
Atom  23N    basis set group =>   2
Atom  24C    basis set group =>   3
Atom  25O    basis set group =>   4
Atom  26O    basis set group =>   4
Atom  27C    basis set group =>   3
Atom  28C    basis set group =>   3
Atom  29H    basis set group =>   5
Atom  30H    basis set group =>   5
Atom  31H    basis set group =>   5
Atom  32H    basis set group =>   5
Atom  33H    basis set group =>   5
Atom  34H    basis set group =>   5
Atom  35H    basis set group =>   5
Atom  36H    basis set group =>   5
Atom  37H    basis set group =>   5
Atom  38H    basis set group =>   5
Atom  39H    basis set group =>   5
Atom  40H    basis set group =>   5
Atom  41H    basis set group =>   5
Atom  42H    basis set group =>   5
Atom  43H    basis set group =>   5
------------------------------------------------------------------------------
                           ORCA GTO INTEGRAL CALCULATION
                           -- RI-GTO INTEGRALS CHOSEN --
------------------------------------------------------------------------------

                         BASIS SET STATISTICS AND STARTUP INFO

Gaussian basis set:
 # of primitive gaussian shells          ...  440
 # of primitive gaussian functions       ...  850
 # of contracted shells                  ...  224
 # of contracted basis functions         ...  498
 Highest angular momentum                ...    3
 Maximum contraction depth               ...    6
Auxiliary gaussian basis set:
 # of primitive gaussian shells          ...  827
 # of primitive gaussian functions       ... 2307
 # of contracted shells                  ...  518
 # of contracted aux-basis functions     ... 1626
 Highest angular momentum                ...    4
 Maximum contraction depth               ...   12
Ratio of auxiliary to basis functions    ...  3.27
Integral package used                  ... LIBINT
 One Electron integrals                  ... done
 Ordering auxiliary basis shells         ... done
 Integral threshhold             Thresh  ...  1.000e-10
 Primitive cut-off               TCut    ...  1.000e-11
 Pre-screening matrix                    ... done
 Shell pair data                         ... 
 Ordering of the shell pairs             ... done (   0.004 sec) 18415 of 25200 pairs
 Determination of significant pairs      ... done (   0.000 sec)
 Creation of shell pair data             ... done (   0.002 sec)
 Storage of shell pair data              ... done (   0.003 sec)
 Shell pair data done in (   0.009 sec)
 Computing two index integrals           ... done
 Cholesky decomposition of the V-matrix  ... done


Timings:
 Total evaluation time                   ...   0.463 sec (  0.008 min)
 One electron matrix time                ...   0.121 sec (  0.002 min) = 26.1%
 Schwartz matrix evaluation time         ...   0.207 sec (  0.003 min) = 44.6%
 Two index repulsion integral time       ...   0.050 sec (  0.001 min) = 10.8%
 Cholesky decomposition of V             ...   0.057 sec (  0.001 min) = 12.4%
 Three index repulsion integral time     ...   0.000 sec (  0.000 min) =  0.0%

-------------------------------------------------------------------------------
                                 ORCA SCF
-------------------------------------------------------------------------------

------------
SCF SETTINGS
------------
Hamiltonian:
 Density Functional     Method          .... DFT(GTOs)
 Exchange Functional    Exchange        .... B88
   X-Alpha parameter    XAlpha          ....  0.666667
   Becke's b parameter  XBeta           ....  0.004200
 Correlation Functional Correlation     .... P86
 LDA part of GGA corr.  LDAOpt          .... PW91-LDA
 Gradients option       PostSCFGGA      .... off
   Density functional embedding theory  .... OFF
 RI-approximation to the Coulomb term is turned on
   Number of auxiliary basis functions  .... 1626


General Settings:
 Integral files         IntName         .... moess
 Hartree-Fock type      HFTyp           .... UHF
 Total Charge           Charge          ....   -1
 Multiplicity           Mult            ....    5
 Number of Electrons    NEL             ....  218
 Basis Dimension        Dim             ....  498
 Nuclear Repulsion      ENuc            ....   3241.0570583364 Eh

Convergence Acceleration:
 DIIS                   CNVDIIS         .... on
   Start iteration      DIISMaxIt       ....    12
   Startup error        DIISStart       ....  0.200000
   # of expansion vecs  DIISMaxEq       ....     5
   Bias factor          DIISBfac        ....   1.050
   Max. coefficient     DIISMaxC        ....  10.000
 Newton-Raphson         CNVNR           .... off
 SOSCF                  CNVSOSCF        .... off
 Level Shifting         CNVShift        .... on
   Level shift para.    LevelShift      ....    0.2500
   Turn off err/grad.   ShiftErr        ....    0.0010
 Zerner damping         CNVZerner       .... off
 Static damping         CNVDamp         .... on
   Fraction old density DampFac         ....    0.7000
   Max. Damping (<1)    DampMax         ....    0.9800
   Min. Damping (>=0)   DampMin         ....    0.0000
   Turn off err/grad.   DampErr         ....    0.1000
 Fernandez-Rico         CNVRico         .... off

SCF Procedure:
 Maximum # iterations   MaxIter         ....   125
 SCF integral mode      SCFMode         .... Direct
   Integral package                     .... LIBINT
 Reset frequency        DirectResetFreq ....    20
 Integral Threshold     Thresh          ....  1.000e-10 Eh
 Primitive CutOff       TCut            ....  1.000e-11 Eh

Convergence Tolerance:
 Convergence Check Mode ConvCheckMode   .... Total+1el-Energy
 Convergence forced     ConvForced      .... 0
 Energy Change          TolE            ....  1.000e-06 Eh
 1-El. energy change                    ....  1.000e-03 Eh
 DIIS Error             TolErr          ....  1.000e-06


Diagonalization of the overlap matrix:
Smallest eigenvalue                        ... 4.264e-04
Time for diagonalization                   ...    0.032 sec
Threshold for overlap eigenvalues          ... 1.000e-08
Number of eigenvalues below threshold      ... 0
Time for construction of square roots      ...    0.018 sec
Total time needed                          ...    0.051 sec

-------------------
DFT GRID GENERATION
-------------------

General Integration Accuracy     IntAcc      ...  4.340
Radial Grid Type                 RadialGrid  ... Gauss-Chebyshev
Angular Grid (max. acc.)         AngularGrid ... Lebedev-110
Angular grid pruning method      GridPruning ... 3 (G Style)
Weight generation scheme         WeightScheme... Becke
Basis function cutoff            BFCut       ...    1.0000e-10
Integration weight cutoff        WCut        ...    1.0000e-14
Grids for H and He will be reduced by one unit

# of grid points (after initial pruning)     ...  61494 (   0.0 sec)
# of grid points (after weights+screening)   ...  54572 (   0.5 sec)
nearest neighbour list constructed           ...    0.0 sec
Grid point re-assignment to atoms done       ...    0.0 sec
Grid point division into batches done        ...    0.0 sec
Reduced shell lists constructed in    0.7 sec

Total number of grid points                  ...    54572
Total number of batches                      ...      872
Average number of points per batch           ...       62
Average number of grid points per atom       ...     1240
Average number of shells per batch           ...    95.91 (42.82%)
Average number of basis functions per batch  ...   200.57 (40.27%)
Average number of large shells per batch     ...    56.80 (59.22%)
Average number of large basis fcns per batch ...   121.66 (60.66%)
Maximum spatial batch extension              ...  20.95, 20.05, 22.19 au
Average spatial batch extension              ...   3.32,  3.33,  4.05 au

Time for grid setup =    1.256 sec

------------------------------
INITIAL GUESS: MODEL POTENTIAL
------------------------------
Loading Hartree-Fock densities                     ... done
Calculating cut-offs                               ... done
Setting up the integral package                    ... done
Initializing the effective Hamiltonian             ... done
Starting the Coulomb interaction                   ... done (   1.5 sec)
Reading the grid                                   ... done
Mapping shells                                     ... done
Starting the XC term evaluation                    ... done (   1.1 sec)
  promolecular density results
     # of electrons  =    217.036569975
     EX              =   -214.697144085
     EC              =     -8.389374308
     EX+EC           =   -223.086518393
Transforming the Hamiltonian                       ... done (   0.0 sec)
Diagonalizing the Hamiltonian                      ... done (   0.0 sec)
Back transforming the eigenvectors                 ... done (   0.0 sec)
Now organizing SCF variables                       ... done
                      ------------------
                      INITIAL GUESS DONE (   4.1 sec)
                      ------------------
--------------
SCF ITERATIONS
--------------
ITER       Energy         Delta-E        Max-DP      RMS-DP      [F,P]     Damp
               ***  Starting incremental Fock matrix formation  ***
  0  -2479.0810474502   0.000000000000 0.23168066  0.00122611  0.4051658 0.7000
  1  -2479.1822297115  -0.101182261233 1.99299110  0.00427381  0.3363839 0.7000
  2  -2478.8020002474   0.380229464094 0.57645930  0.00166049  0.2792696 0.7000
  3  -2479.0280881163  -0.226087868928 0.21022209  0.00139985  0.3556979 0.7000
                               ***Turning on DIIS***
  4  -2478.7589937689   0.269094347374 0.44890830  0.00143743  0.1387741 0.7000
  5  -2478.9833730332  -0.224379264258 0.33287874  0.00091643  0.3507490 0.7000
  6  -2478.1210412218   0.862331811424 0.23518623  0.00065745  0.6458936 0.7000
  7  -2477.1681983147   0.952842907041 0.16463267  0.00046821  0.8841612 0.7000
  8  -2476.3392268338   0.828971480903 0.11516883  0.00033301  1.0746879 0.7000
  9  -2475.6875834745   0.651643359352 0.08056357  0.00024381  1.2202529 0.7000
 10  -2475.2593514657   0.428232008785 0.13258434  0.00060413  1.3173092 0.7000
 11  -2476.2717322538  -1.012380788129 0.68021233  0.00259708  1.1515661 0.7000
 12  -2479.2043630020  -2.932630748165 1.75127387  0.00754881  0.0987723 0.0000
 13  -2466.8211614117  12.383201590259 0.20434468  0.00082927  0.6823201 0.7000
 14  -2467.3422897887  -0.521128376942 0.38433639  0.00143256  0.6640683 0.7000
 15  -2468.0422607739  -0.699970985200 0.41359478  0.00161216  0.7242254 0.7000
 16  -2468.7970543101  -0.754793536250 0.35483837  0.00146129  0.7888268 0.7000
 17  -2469.5078746673  -0.710820357246 2.75120976  0.01080656  0.8391296 0.7000
 18  -2471.9783853032  -2.470510635869 0.36605944  0.00271850  0.3076668 0.7000
 19  -2473.0764735281  -1.098088224859 0.62929382  0.00266936  0.3208597 0.7000
               *** Restarting incremental Fock matrix formation ***
                                   *** Resetting DIIS ***
 20  -2473.6852958008  -0.608822272684 0.58381329  0.00495735  0.5721685 0.7000
 21  -2476.1788266661  -2.493530865366 0.43594372  0.00288068  0.1775880 0.7000
 22  -2474.9555888379   1.223237828257 0.29655252  0.00212746  0.3651635 0.7000
 23  -2473.3175348196   1.638054018271 0.19662654  0.00147254  0.4571898 0.7000
 24  -2472.0731955348   1.244339284834 0.13208784  0.00108148  0.4935703 0.7000
 25  -2471.5900138547   0.483181680111 0.14466719  0.00108592  0.5769618 0.7000
 26  -2471.1279542310   0.462059623657 0.42121264  0.00287544  0.6255537 0.7000
 27  -2477.3788559808  -6.250901749837 0.31147339  0.00213400  0.2689114 0.7000
 28  -2478.2951903183  -0.916334337459 0.22121794  0.00143631  0.2361214 0.7000
 29  -2477.5640564364   0.731133881909 0.15587260  0.00105896  0.5595974 0.7000
 30  -2476.6809014516   0.883154984817 0.10919621  0.00083504  0.8355825 0.7000
 31  -2476.0180312085   0.662870243066 0.07602817  0.00065964  1.0508273 0.7000
 32  -2475.6507621060   0.367269102507 0.05950643  0.00059603  1.1851502 0.7000
 33  -2475.7135076996  -0.062745593620 0.57214610  0.00272743  1.2163104 0.7000
 34  -2478.3870248799  -2.673517180264 0.45772349  0.00216114  0.2079973 0.7000
 35  -2477.3929107469   0.994114132984 0.22860526  0.00161873  0.2703272 0.7000
 36  -2475.7507810350   1.642129711861 0.37763299  0.00194548  0.4824008 0.7000
 37  -2477.3311487396  -1.580367704582 0.27803067  0.00139330  0.4311001 0.7000
 38  -2478.1741800010  -0.843031261354 0.20020124  0.00098526  0.4673047 0.7000
 39  -2478.4256554815  -0.251475480578 0.16344760  0.00096653  0.5516493 0.7000
               *** Restarting incremental Fock matrix formation ***
                                   *** Resetting DIIS ***
 40  -2479.4009982580  -0.975342776420 0.42440608  0.00274260  0.0997297 0.0000
 41  -2475.6037413927   3.797256865277 0.04552347  0.00030406  1.4465732 0.7000
 42  -2476.2394659773  -0.635724584562 0.06036262  0.00034423  1.3273034 0.7000
 43  -2476.9495919697  -0.710125992407 0.06083542  0.00030250  1.1762284 0.7000
 44  -2477.5567606588  -0.607168689128 0.05473086  0.00024339  1.0297963 0.7000
 45  -2478.0317383583  -0.474977699561 0.54067323  0.00199128  0.9043337 0.7000
 46  -2479.3429748315  -1.311236473103 0.53581509  0.00261482  0.0616358 0.0000
 47  -2477.0619152853   2.281059546160 0.04743028  0.00033876  0.5796591 0.7000
 48  -2477.7096107662  -0.647695480938 0.06739005  0.00042879  0.5184544 0.7000
 49  -2478.4658852695  -0.756274503232 0.07220267  0.00041945  0.4453629 0.7000
 50  -2479.0777606821  -0.611875412666 0.07694492  0.00040523  0.3521364 0.7000
 51  -2479.5003347637  -0.422574081541 0.08162991  0.00058728  0.2263656 0.7000
 52  -2479.7644397630  -0.264104999371 0.16657152  0.00111293  0.0329737 0.0000
 53  -2479.6333650042   0.131074758864 0.01383123  0.00007978  0.2990079 0.7000
 54  -2479.6785555355  -0.045190531342 0.01961033  0.00010118  0.2722792 0.7000
 55  -2479.7303312308  -0.051775695247 0.02148762  0.00010345  0.2431589 0.7000
 56  -2479.7770498797  -0.046718648985 0.02328093  0.00011285  0.2132830 0.7000
 57  -2479.8229272220  -0.045877342226 0.03226622  0.00021832  0.1781774 0.7000
 58  -2479.8875723141  -0.064645092106 0.08911427  0.00052184  0.0993813 0.0000
 59  -2479.9249983605  -0.037426046402 0.01728033  0.00016249  0.0869344 0.0000
               *** Restarting incremental Fock matrix formation ***
                                   *** Resetting DIIS ***
 60  -2479.9388922424  -0.013893881887 0.06822328  0.00040085  0.0411481 0.0000
 61  -2479.9154017120   0.023490530334 0.00519362  0.00004953  0.1246185 0.7000
 62  -2479.9226719056  -0.007270193571 0.00542349  0.00005244  0.1052131 0.7000
 63  -2479.9293502173  -0.006678311706 0.01741683  0.00015745  0.0856497 0.0000
 64  -2479.9432416750  -0.013891457722 0.00416935  0.00005314  0.0300781 0.0000
 65  -2479.9452926325  -0.002050957420 0.00821525  0.00006065  0.0196029 0.0000
 66  -2479.9466128234  -0.001320190936 0.00361301  0.00003241  0.0022755 0.0000
 67  -2479.9467959961  -0.000183172757 0.00265427  0.00002649  0.0052501 0.0000
 68  -2479.9469355957  -0.000139599523 0.00233154  0.00002204  0.0050162 0.0000
 69  -2479.9470503840  -0.000114788326 0.00199489  0.00001942  0.0042743 0.0000
 70  -2479.9471490616  -0.000098677573 0.00195902  0.00002244  0.0032223 0.0000
 71  -2479.9472183080  -0.000069246403 0.00163318  0.00001447  0.0024807 0.0000
 72  -2479.9472741359  -0.000055827958 0.00165545  0.00001281  0.0022946 0.0000
 73  -2479.9473254543  -0.000051318380 0.03620249  0.00013703  0.0005512 0.0000
 74  -2479.9461962418   0.001129212529 0.00016592  0.00000101  0.0203629 0.0000
 75  -2479.9462286399  -0.000032398110 0.00017844  0.00000071  0.0200739 0.0000
 76  -2479.9462546872  -0.000026047306 0.00017614  0.00000056  0.0198625 0.0000
 77  -2479.9462749617  -0.000020274517 0.00010951  0.00000051  0.0197040 0.0000
 78  -2479.9462777755  -0.000002813777 0.03853469  0.00017717  0.0196973 0.0000
 79  -2479.9417373613   0.004540414183 0.00797992  0.00007296  0.0541590 0.0000
               *** Restarting incremental Fock matrix formation ***
                                   *** Resetting DIIS ***
 80  -2479.9452241750  -0.003486813669 0.05280018  0.00027036  0.0292925 0.0000
 81  -2479.9350891982   0.010134976827 0.01142720  0.00010949  0.0775193 0.0000
 82  -2479.9431473024  -0.008058104256 0.00463936  0.00004645  0.0380242 0.0000
 83  -2479.9453607006  -0.002213398173 0.00546556  0.00003511  0.0246458 0.0000
 84  -2479.9466828237  -0.001322123137 0.00540352  0.00002203  0.0137821 0.0000
 85  -2479.9472188224  -0.000535998666 0.00499494  0.00001716  0.0059793 0.0000
 86  -2479.9473926749  -0.000173852491 0.00391501  0.00001319  0.0010607 0.0000
 87  -2479.9474233988  -0.000030723882 0.00313526  0.00001069  0.0018577 0.0000
 88  -2479.9474319278  -0.000008529062 0.00254057  0.00000911  0.0028535 0.0000
 89  -2479.9474371596  -0.000005231769 0.00240617  0.00000759  0.0031670 0.0000
 90  -2479.9474326641   0.000004495442 0.00279822  0.00000796  0.0038815 0.0000
 91  -2479.9473913856   0.000041278518 0.00174631  0.00000693  0.0059120 0.0000
 92  -2479.9473964646  -0.000005078954 0.00176337  0.00000548  0.0056181 0.0000
 93  -2479.9473863912   0.000010073409 0.00157473  0.00000489  0.0060334 0.0000
 94  -2479.9473778902   0.000008501006 0.00061170  0.00000629  0.0063344 0.0000
 95  -2479.9474153381  -0.000037447890 0.00433259  0.00002853  0.0046385 0.0000
 96  -2479.9474225047  -0.000007166653 0.00082256  0.00000969  0.0053219 0.0000
 97  -2479.9474688193  -0.000046314585 0.00086291  0.00000552  0.0026227 0.0000
 98  -2479.9474844211  -0.000015601774 0.00087643  0.00000336  0.0011216 0.0000
 99  -2479.9474897606  -0.000005339529 0.02071980  0.00006378  0.0002942 0.0000
               *** Restarting incremental Fock matrix formation ***
                                   *** Resetting DIIS ***
100  -2479.9472989020   0.000190858585 0.01613073  0.00007725  0.0087333 0.0000
101  -2479.9465118973   0.000787004701 0.00320277  0.00003226  0.0229609 0.0000
102  -2479.9471326500  -0.000620752722 0.00141441  0.00001471  0.0119655 0.0000
103  -2479.9472967601  -0.000164110032 0.00068023  0.00000786  0.0085741 0.0000
104  -2479.9473678859  -0.000071125834 0.00072358  0.00000812  0.0069164 0.0000
105  -2479.9474437074  -0.000075821462 0.00188872  0.00001186  0.0044411 0.0000
106  -2479.9475017007  -0.000057993339 0.02668809  0.00007473  0.0002820 0.0000
107  -2479.9469751256   0.000526575109 0.00016092  0.00000100  0.0141148 0.0000
108  -2479.9469982418  -0.000023116253 0.00019751  0.00000089  0.0137239 0.0000
109  -2479.9470200819  -0.000021840019 0.00017975  0.00000061  0.0133810 0.0000
110  -2479.9470341035  -0.000014021633 0.00011471  0.00000047  0.0131816 0.0000
111  -2479.9470364025  -0.000002299029 0.02231244  0.00010567  0.0131812 0.0000
112  -2479.9458293645   0.001207038011 0.00420569  0.00004269  0.0303619 0.0000
113  -2479.9468481156  -0.001018751050 0.00188332  0.00002026  0.0161758 0.0000
114  -2479.9471173736  -0.000269258008 0.00134969  0.00001449  0.0119578 0.0000
115  -2479.9473033489  -0.000185975347 0.00094469  0.00001018  0.0085183 0.0000
116  -2479.9474190406  -0.000115691720 0.00193207  0.00001422  0.0053944 0.0000
117  -2479.9475023848  -0.000083344198 0.02435795  0.00006924  0.0005109 0.0000
118  -2479.9469594914   0.000542893437 0.00040016  0.00000262  0.0142236 0.0000
119  -2479.9470192791  -0.000059787665 0.00042269  0.00000187  0.0132475 0.0000
               *** Restarting incremental Fock matrix formation ***
                                   *** Resetting DIIS ***
120  -2479.9470660741  -0.000046795035 0.02411119  0.00011271  0.0125524 0.0000
121  -2479.9453956789   0.001670395161 0.00465704  0.00004726  0.0339168 0.0000
122  -2479.9466825071  -0.001286828128 0.00203881  0.00002178  0.0181018 0.0000
123  -2479.9470148688  -0.000332361734 0.00111256  0.00001183  0.0134285 0.0000
124  -2479.9471540295  -0.000139160675 0.00108482  0.00001198  0.0113400 0.0000

               *****************************************************
               *                      ERROR                        *
               *        SCF NOT CONVERGED AFTER 125 CYCLES         *
               *****************************************************

Setting up the final grid:

General Integration Accuracy     IntAcc      ...  4.670
Radial Grid Type                 RadialGrid  ... Gauss-Chebyshev
Angular Grid (max. acc.)         AngularGrid ... Lebedev-302
Angular grid pruning method      GridPruning ... 3 (G Style)
Weight generation scheme         WeightScheme... Becke
Basis function cutoff            BFCut       ...    1.0000e-10
Integration weight cutoff        WCut        ...    1.0000e-14
Grids for H and He will be reduced by one unit

# of grid points (after initial pruning)     ... 234486 (   0.1 sec)
# of grid points (after weights+screening)   ... 203470 (   2.1 sec)
nearest neighbour list constructed           ...    0.0 sec
Grid point re-assignment to atoms done       ...    0.0 sec
Grid point division into batches done        ...    0.7 sec
Reduced shell lists constructed in    3.0 sec

Total number of grid points                  ...   203470
Total number of batches                      ...     3205
Average number of points per batch           ...       63
Average number of grid points per atom       ...     4624
Average number of shells per batch           ...    85.33 (38.09%)
Average number of basis functions per batch  ...   177.22 (35.59%)
Average number of large shells per batch     ...    49.82 (58.39%)
Average number of large basis fcns per batch ...   105.69 (59.64%)
Maximum spatial batch extension              ...  19.98, 23.47, 22.48 au
Average spatial batch extension              ...   2.16,  2.18,  2.41 au

Final grid set up in    5.2 sec
Final integration                            ... done (   6.2 sec)
Change in XC energy                          ...     0.001481636
Integrated number of electrons               ...   217.999752820
Previous integrated no of electrons          ...   218.025957550

---------------
SCF CONVERGENCE
---------------

  Last Energy change         ...   -1.3916e-04  Tolerance :   1.0000e-06
  Last MAX-Density change    ...    1.0848e-03  Tolerance :   1.0000e-05
  Last RMS-Density change    ...    1.1984e-05  Tolerance :   1.0000e-06
  Last DIIS Error            ...    1.1340e-02  Tolerance :   1.0000e-06

             **** DENSITY FILE WAS UPDATED (moess.scfp.tmp) ****
             **** ENERGY FILE WAS UPDATED (moess.en.tmp) ****

     --------------------------------------------------------------------
                                      WARNING
     The wavefunction IS NOT YET CONVERGED! It shows however signs of
     convergence. Therefore the wavefunction will be stored and can be
     used as input for another calculation. 
     DO NOT USE THIS WAVEFUNCTION  FOR ANYHTING ELSE. It is NOT RELIABLE
     --------------------------------------------------------------------

-------
TIMINGS
-------

Total SCF time: 0 days 0 hours 11 min 3 sec 

Total time                  ....     663.165 sec
Sum of individual times     ....     661.055 sec  ( 99.7%)

Fock matrix formation       ....     632.029 sec  ( 95.3%)
  Split-RI-J                ....     427.986 sec  ( 67.7% of F)
  XC integration            ....     202.230 sec  ( 32.0% of F)
    Basis function eval.    ....      44.560 sec  ( 22.0% of XC)
    Density eval.           ....      64.497 sec  ( 31.9% of XC)
    XC-Functional eval.     ....       7.331 sec  (  3.6% of XC)
    XC-Potential eval.      ....      83.059 sec  ( 41.1% of XC)
Diagonalization             ....      12.648 sec  (  1.9%)
Density matrix formation    ....       2.237 sec  (  0.3%)
Population analysis         ....       0.000 sec  (  0.0%)
Initial guess               ....       2.802 sec  (  0.4%)
Orbital Transformation      ....       0.000 sec  (  0.0%)
Orbital Orthonormalization  ....       0.000 sec  (  0.0%)
DIIS solution               ....       4.915 sec  (  0.7%)
Grid generation             ....       6.423 sec  (  1.0%)

-------------------------   --------------------
FINAL SINGLE POINT ENERGY     -2479.945672393550   (SCF not fully converged!)
-------------------------   --------------------



     ------------------------------------------------------------------------------
                                      ERROR
     This SCF-wavefunction IS NOT FULLY CONVERGED! 
     You can't use it for properties or numerical calculations !
     Aborting the run ...
     Please restart calculation (with larger maxiter/different convergence flags)
     ------------------------------------------------------------------------------


