
                                 *****************
                                 * O   R   C   A *
                                 *****************

           --- An Ab Initio, DFT and Semiempirical electronic structure package ---

                  #######################################################
                  #                        -***-                        #
                  #          Department of theory and spectroscopy      #
                  #               Directorship: Frank Neese             #
                  #        Max Planck Institute fuer Kohlenforschung    #
                  #                Kaiser Wilhelm Platz 1               #
                  #                 D-45470 Muelheim/Ruhr               #
                  #                      Germany                        #
                  #                                                     #
                  #                  All rights reserved                #
                  #                        -***-                        #
                  #######################################################


                         Program Version 4.1.2  - RELEASE  -


 With contributions from (in alphabetic order):
   Daniel Aravena         : Magnetic Properties
   Michael Atanasov       : Ab Initio Ligand Field Theory
   Alexander A. Auer      : GIAO ZORA
   Ute Becker             : Parallelization
   Giovanni Bistoni       : ED, Open-shell LED
   Martin Brehm           : Molecular dynamics
   Dmytro Bykov           : SCF Hessian
   Vijay G. Chilkuri      : MRCI spin determinant printing
   Dipayan Datta          : RHF DLPNO-CCSD density
   Achintya Kumar Dutta   : EOM-CC, STEOM-CC
   Dmitry Ganyushin       : Spin-Orbit,Spin-Spin,Magnetic field MRCI
   Miquel Garcia          : C-PCM Hessian
   Yang Guo               : DLPNO-NEVPT2, CIM, IAO-localization
   Andreas Hansen         : Spin unrestricted coupled pair/coupled cluster methods
   Benjamin Helmich-Paris : CASSCF linear response (MC-RPA)
   Lee Huntington         : MR-EOM, pCC
   Robert Izsak           : Overlap fitted RIJCOSX, COSX-SCS-MP3, EOM
   Christian Kollmar      : KDIIS, OOCD, Brueckner-CCSD(T), CCSD density
   Simone Kossmann        : Meta GGA functionals, TD-DFT gradient, OOMP2, MP2 Hessian
   Martin Krupicka        : AUTO-CI
   Lucas Lang             : DCDCAS
   Dagmar Lenk            : GEPOL surface, SMD
   Dimitrios Liakos       : Extrapolation schemes; parallel MDCI
   Dimitrios Manganas     : ROCIS; embedding schemes
   Dimitrios Pantazis     : SARC Basis sets
   Taras Petrenko         : DFT Hessian,TD-DFT gradient, ASA, ECA, R-Raman, ABS, FL, XAS/XES, NRVS
   Peter Pinski           : DLPNO-MP2, DLPNO-MP2 Gradient
   Christoph Reimann      : Effective Core Potentials
   Marius Retegan         : Local ZFS, SOC
   Christoph Riplinger    : Optimizer, TS searches, QM/MM, DLPNO-CCSD(T), (RO)-DLPNO pert. Triples
   Tobias Risthaus        : Range-separated hybrids, TD-DFT gradient, RPA, STAB
   Michael Roemelt        : Restricted open shell CIS
   Masaaki Saitow         : Open-shell DLPNO
   Barbara Sandhoefer     : DKH picture change effects
   Avijit Sen             : IP-ROCIS
   Kantharuban Sivalingam : CASSCF convergence, NEVPT2, FIC-MRCI
   Bernardo de Souza      : ESD, SOC TD-DFT
   Georgi Stoychev        : AutoAux, RI-MP2 NMR
   Willem Van den Heuvel  : Paramagnetic NMR
   Boris Wezisla          : Elementary symmetry handling
   Frank Wennmohs         : Technical directorship


 We gratefully acknowledge several colleagues who have allowed us to
 interface, adapt or use parts of their codes:
   Stefan Grimme, W. Hujo, H. Kruse,             : VdW corrections, initial TS optimization,
                  C. Bannwarth                     DFT functionals, gCP, sTDA/sTD-DF
   Ed Valeev                                     : LibInt (2-el integral package), F12 methods
   Garnet Chan, S. Sharma, J. Yang, R. Olivares  : DMRG
   Ulf Ekstrom                                   : XCFun DFT Library
   Mihaly Kallay                                 : mrcc  (arbitrary order and MRCC methods)
   Andreas Klamt, Michael Diedenhofen            : otool_cosmo (COSMO solvation model)
   Jiri Pittner, Ondrej Demel                    : Mk-CCSD
   Frank Weinhold                                : gennbo (NPA and NBO analysis)
   Christopher J. Cramer and Donald G. Truhlar   : smd solvation model
   Lars Goerigk                                  : TD-DFT with DH, B97 family of functionals
   V. Asgeirsson, H. Jonsson                     : NEB implementation
   FAccTs GmbH                                   : IRC, NEB, NEB-TS, Multilevel


 Your calculation uses the libint2 library for the computation of 2-el integrals
 For citations please refer to: http://libint.valeyev.net

 This ORCA versions uses:
   CBLAS   interface :  Fast vector & matrix operations
   LAPACKE interface :  Fast linear algebra routines
   SCALAPACK package :  Parallel linear algebra routines




***************************************
The coordinates will be read from file: geom.xyz
***************************************


----- Orbital basis set information -----
Your calculation utilizes the basis: def2-SVP
   F. Weigend and R. Ahlrichs, Phys. Chem. Chem. Phys. 7, 3297 (2005).

----- AuxJ basis set information -----
Your calculation utilizes the auxiliary basis: def2/J
   F. Weigend, Phys. Chem. Chem. Phys. 8, 1057 (2006).

================================================================================
                                        WARNINGS
                       Please study these warnings very carefully!
================================================================================


WARNING: your system is open-shell and RHF/RKS was chosen
  ===> : WILL SWITCH to UHF/UKS


INFO   : the flag for use of LIBINT has been found!

================================================================================
                                       INPUT FILE
================================================================================
NAME = moess.inp
|  1> ! bp86 def2-svp
|  2> 
|  3> * xyzfile -1 5 geom.xyz
|  4> 
|  5> %eprnmr
|  6> nuclei = all Fe {fgrad, rho}
|  7> end
|  8> 
|  9> 
| 10>                          ****END OF INPUT****
================================================================================

                       ****************************
                       * Single Point Calculation *
                       ****************************

---------------------------------
CARTESIAN COORDINATES (ANGSTROEM)
---------------------------------
  Fe    -0.182517   -0.008482    0.181023
  Cl    -0.603264   -0.043833    2.522261
  N      1.107028   -1.414438   -0.076751
  N     -1.494838   -1.358691   -0.277158
  N     -1.446253    1.402177   -0.226001
  N      1.162954    1.330432   -0.209487
  O     -1.585051   -3.428532   -1.345133
  O     -4.454775    0.056527    1.202601
  O     -1.559864    3.537600   -1.068208
  O      3.312360    2.026777   -0.657975
  O      3.164209   -2.400338    0.151617
  C      0.531743   -2.727090   -0.485394
  C     -0.959315   -2.521672   -0.771329
  C     -2.979777   -1.257086   -0.175470
  C     -3.453459    0.073304    0.498322
  C     -2.886575    1.459120    0.124866
  C     -0.899537    2.534234   -0.751690
  C      0.625157    2.527049   -0.923915
  C      2.532688    1.179221   -0.187568
  C      3.147862   -0.052198    0.484076
  C      2.458587   -1.378394    0.151450
  C      1.182068   -3.292324   -1.763264
  C      0.591033   -3.752228    0.679275
  C     -3.654881   -1.293571   -1.579711
  C     -3.518038   -2.412414    0.696806
  C     -3.092052    2.424179    1.317226
  C     -3.798929    1.927110   -1.061949
  C      1.127414    3.848839   -0.308734
  C      0.918633    2.447620   -2.440935
  C      3.028138    0.067160    2.046281
  C      3.728535    1.270614    2.684806
  C      4.645247   -0.160467    0.073259
  C      4.924938   -0.426564   -1.415566
  H      0.611182   -4.173483   -2.068050
  H      2.218459   -3.566203   -1.573369
  H      1.140562   -2.554451   -2.571996
  H      1.627651   -4.024500    0.879088
  H      0.019219   -4.641273    0.397304
  H      0.155285   -3.322017    1.585822
  H     -4.724975   -1.082201   -1.483372
  H     -3.523269   -2.291864   -1.998435
  H     -3.210693   -0.568872   -2.265063
  H     -3.280286   -3.369524    0.231545
  H     -4.601438   -2.318938    0.794934
  H     -3.071013   -2.361309    1.693403
  H     -4.147690    2.431458    1.598665
  H     -2.795562    3.429394    1.012049
  H     -2.491408    2.110671    2.174497
  H     -3.735703    3.009461   -1.148410
  H     -4.833062    1.640636   -0.850228
  H     -3.483129    1.487515   -2.009712
  H      2.201662    3.954721   -0.443219
  H      0.887266    3.876837    0.759130
  H      0.606191    4.671747   -0.804697
  H      1.993631    2.518529   -2.616950
  H      0.412507    3.272285   -2.951497
  H      0.546262    1.501669   -2.847184
  H      1.965733    0.082494    2.308261
  H      3.444241   -0.863582    2.450959
  H      3.520509    1.274261    3.760414
  H      3.362184    2.217359    2.273517
  H      4.813839    1.232322    2.550933
  H      5.085865   -0.967272    0.667404
  H      5.136758    0.771426    0.363027
  H      6.007843   -0.467522   -1.584917
  H      4.517813    0.366692   -2.049517
  H      4.505724   -1.382183   -1.744697

----------------------------
CARTESIAN COORDINATES (A.U.)
----------------------------
  NO LB      ZA    FRAG     MASS         X           Y           Z
   0 Fe   26.0000    0    55.850   -0.344907   -0.016029    0.342084
   1 Cl   17.0000    0    35.453   -1.140004   -0.082832    4.766383
   2 N     7.0000    0    14.007    2.091980   -2.672900   -0.145038
   3 N     7.0000    0    14.007   -2.824834   -2.567554   -0.523753
   4 N     7.0000    0    14.007   -2.733022    2.649731   -0.427080
   5 N     7.0000    0    14.007    2.197665    2.514152   -0.395873
   6 O     8.0000    0    15.999   -2.995312   -6.478987   -2.541933
   7 O     8.0000    0    15.999   -8.418305    0.106821    2.272587
   8 O     8.0000    0    15.999   -2.947716    6.685095   -2.018621
   9 O     8.0000    0    15.999    6.259453    3.830053   -1.243393
  10 O     8.0000    0    15.999    5.979488   -4.535981    0.286515
  11 C     6.0000    0    12.011    1.004849   -5.153453   -0.917262
  12 C     6.0000    0    12.011   -1.812843   -4.765269   -1.457601
  13 C     6.0000    0    12.011   -5.630962   -2.375548   -0.331590
  14 C     6.0000    0    12.011   -6.526092    0.138524    0.941692
  15 C     6.0000    0    12.011   -5.454836    2.757337    0.235963
  16 C     6.0000    0    12.011   -1.699879    4.789008   -1.420488
  17 C     6.0000    0    12.011    1.181376    4.775431   -1.745946
  18 C     6.0000    0    12.011    4.786087    2.228405   -0.354452
  19 C     6.0000    0    12.011    5.948597   -0.098640    0.914771
  20 C     6.0000    0    12.011    4.646056   -2.604787    0.286199
  21 C     6.0000    0    12.011    2.233785   -6.221591   -3.332086
  22 C     6.0000    0    12.011    1.116891   -7.090683    1.283644
  23 C     6.0000    0    12.011   -6.906724   -2.444495   -2.985221
  24 C     6.0000    0    12.011   -6.648128   -4.558802    1.316773
  25 C     6.0000    0    12.011   -5.843131    4.581034    2.489196
  26 C     6.0000    0    12.011   -7.178935    3.641710   -2.006793
  27 C     6.0000    0    12.011    2.130504    7.273252   -0.583423
  28 C     6.0000    0    12.011    1.735965    4.625331   -4.612699
  29 C     6.0000    0    12.011    5.722352    0.126914    3.866911
  30 C     6.0000    0    12.011    7.045910    2.401112    5.073548
  31 C     6.0000    0    12.011    8.778245   -0.303239    0.138439
  32 C     6.0000    0    12.011    9.306784   -0.806089   -2.675032
  33 H     1.0000    0     1.008    1.154967   -7.886740   -3.908048
  34 H     1.0000    0     1.008    4.192280   -6.739147   -2.973237
  35 H     1.0000    0     1.008    2.155350   -4.827213   -4.860368
  36 H     1.0000    0     1.008    3.075815   -7.605203    1.661236
  37 H     1.0000    0     1.008    0.036319   -8.770735    0.750796
  38 H     1.0000    0     1.008    0.293446   -6.277702    2.996769
  39 H     1.0000    0     1.008   -8.928909   -2.045064   -2.803167
  40 H     1.0000    0     1.008   -6.658014   -4.330995   -3.776495
  41 H     1.0000    0     1.008   -6.067330   -1.075012   -4.280349
  42 H     1.0000    0     1.008   -6.198842   -6.367478    0.437557
  43 H     1.0000    0     1.008   -8.695458   -4.382158    1.502208
  44 H     1.0000    0     1.008   -5.803374   -4.462227    3.200068
  45 H     1.0000    0     1.008   -7.837998    4.594790    3.021039
  46 H     1.0000    0     1.008   -5.282847    6.480615    1.912495
  47 H     1.0000    0     1.008   -4.708079    3.988590    4.109204
  48 H     1.0000    0     1.008   -7.059456    5.687057   -2.170180
  49 H     1.0000    0     1.008   -9.133164    3.100353   -1.606698
  50 H     1.0000    0     1.008   -6.582160    2.810996   -3.797805
  51 H     1.0000    0     1.008    4.160538    7.473340   -0.837563
  52 H     1.0000    0     1.008    1.676690    7.326160    1.434548
  53 H     1.0000    0     1.008    1.145535    8.828322   -1.520657
  54 H     1.0000    0     1.008    3.767417    4.759330   -4.945319
  55 H     1.0000    0     1.008    0.779525    6.183722   -5.577521
  56 H     1.0000    0     1.008    1.032286    2.837743   -5.380398
  57 H     1.0000    0     1.008    3.714697    0.155891    4.361981
  58 H     1.0000    0     1.008    6.508672   -1.631933    4.631641
  59 H     1.0000    0     1.008    6.652798    2.408004    7.106153
  60 H     1.0000    0     1.008    6.353607    4.190201    4.296324
  61 H     1.0000    0     1.008    9.096837    2.328751    4.820565
  62 H     1.0000    0     1.008    9.610892   -1.827879    1.261211
  63 H     1.0000    0     1.008    9.707066    1.457784    0.686022
  64 H     1.0000    0     1.008   11.353178   -0.883489   -2.995059
  65 H     1.0000    0     1.008    8.537429    0.692947   -3.873026
  66 H     1.0000    0     1.008    8.514584   -2.611947   -3.297000

--------------------------------
INTERNAL COORDINATES (ANGSTROEM)
--------------------------------
 Fe     0   0   0     0.000000000000     0.00000000     0.00000000
 Cl     1   0   0     2.379006747333     0.00000000     0.00000000
 N      1   2   0     1.925119740701   103.85060183     0.00000000
 N      1   2   3     1.937828831317    95.88675256    86.29933959
 N      1   2   3     1.937177335339    95.86712654   177.82845923
 N      1   2   3     1.937906337091   109.35193874   264.24510170
 O      4   1   2     2.330869097842   138.87526794   237.28209986
 O      5   1   2     3.592058215200   100.95398149   305.31137526
 O      5   1   2     2.298314921654   141.79792203   117.63613676
 O      6   1   2     2.303472161326   153.63087337    98.81797864
 O      3   1   2     2.292628277804   154.39334874   292.65061891
 C      3   1   2     1.490301045352   114.92328541    95.71030884
 C      7   4   1     1.242252644075    28.43050034    18.72754340
 C      4   1   2     1.491880645055   127.62506307    67.24628767
 C      8   5   1     1.224305562115    23.23174643   306.08328399
 C      5   1   2     1.483535513772   127.70636448   306.34411006
 C      9   5   1     1.242158895315    29.52238670     0.25506766
 C      6   1   2     1.493829048145   113.56971258   250.66040504
 C     10   6   1     1.243994512194    30.18371078   338.37959518
 C     19  10   6     1.531645346212   117.50718925   182.24751724
 C     11   3   1     1.241882431597    30.26301051   338.51472631
 C     12   3   1     1.541221534135   112.79858152   126.57955658
 C     12   3   1     1.552699939687   111.16843133   252.43990415
 C     14   4   1     1.558521527642   111.60132513   113.86582254
 C     14   4   1     1.544465315856   109.53835841   235.80283434
 C     16   5   1     1.547669874557   109.57514392   103.49029729
 C     16   5   1     1.568417771399   113.40625139   225.06748211
 C     18   6   1     1.542024176500   112.24561124   133.74548857
 C     18   6   1     1.547186740189   111.07047222   259.89584843
 C     20  19  10     1.571325755649   110.13864653   104.81542119
 C     30  20  19     1.531852363431   116.05610600   299.58604698
 C     20  19  10     1.556487912602   109.06110823   344.08690230
 C     32  20  19     1.538061945929   116.26125623   294.89721816
 H     22  12   3     1.093273302552   107.84240104   187.90560748
 H     22  12   3     1.088657945613   110.44661994    67.60517444
 H     22  12   3     1.095548611422   110.43016260   306.30182840
 H     23  12   3     1.090244997639   109.79532370   291.36246374
 H     23  12   3     1.094020067212   108.85916438   170.95095374
 H     23  12   3     1.093976822073   110.28759236    51.45356509
 H     24  14   4     1.095015821190   109.84773802   187.60625228
 H     24  14   4     1.090523003228   108.36739264    68.41292808
 H     24  14   4     1.091878648866   111.94958615   308.77805592
 H     25  14   4     1.090437235115   109.85368349   298.24333712
 H     25  14   4     1.091843590887   109.42244605   178.29893963
 H     25  14   4     1.093457201750   109.71296429    59.18942390
 H     26  16   5     1.092534888050   109.32331415   182.31668903
 H     26  16   5     1.091556923689   108.83092633    63.16048812
 H     26  16   5     1.092691195279   110.64326269   302.77155632
 H     27  16   5     1.087638137800   108.86084070   280.98357749
 H     27  16   5     1.093766061005   108.98758075   161.81092738
 H     27  16   5     1.091433968774   111.62906396    40.55418277
 H     28  18   6     1.087798684800   110.84053028    65.90684548
 H     28  18   6     1.094891991205   109.85097140   304.69655168
 H     28  18   6     1.093082928950   107.99820836   186.43166384
 H     29  18   6     1.091618095540   109.97190367   293.39089969
 H     29  18   6     1.094033567102   109.33735464   173.31259833
 H     29  18   6     1.094770161286   110.10166734    53.94239049
 H     30  20  19     1.094336801895   108.24257085    63.05937557
 H     30  20  19     1.096898655691   105.86851224   177.46282412
 H     31  30  20     1.095545839730   108.96814182   176.55517419
 H     31  30  20     1.095307167760   111.69174652    57.82307337
 H     31  30  20     1.094199721170   112.02514571   295.96315475
 H     32  20  19     1.094571519351   107.17352174   172.79328778
 H     32  20  19     1.092690770710   107.66312770    57.20461128
 H     33  32  20     1.096832055508   109.60022527   179.17543909
 H     33  32  20     1.094029120984   111.57994563    59.89907357
 H     33  32  20     1.094200743062   111.87564502   298.20240463

---------------------------
INTERNAL COORDINATES (A.U.)
---------------------------
 Fe     0   0   0     0.000000000000     0.00000000     0.00000000
 Cl     1   0   0     4.495671223209     0.00000000     0.00000000
 N      1   2   0     3.637949084931   103.85060183     0.00000000
 N      1   2   3     3.661965785606    95.88675256    86.29933959
 N      1   2   3     3.660734636631    95.86712654   177.82845923
 N      1   2   3     3.662112250292   109.35193874   264.24510170
 O      4   1   2     4.404704248942   138.87526794   237.28209986
 O      5   1   2     6.788006283831   100.95398149   305.31137526
 O      5   1   2     4.343185771431   141.79792203   117.63613676
 O      6   1   2     4.352931542018   153.63087337    98.81797864
 O      3   1   2     4.332439571932   154.39334874   292.65061891
 C      3   1   2     2.816260832812   114.92328541    95.71030884
 C      7   4   1     2.347517286442    28.43050034    18.72754340
 C      4   1   2     2.819245843652   127.62506307    67.24628767
 C      8   5   1     2.313602216634    23.23174643   306.08328399
 C      5   1   2     2.803475830975   127.70636448   306.34411006
 C      9   5   1     2.347340126959    29.52238670     0.25506766
 C      6   1   2     2.822927791890   113.56971258   250.66040504
 C     10   6   1     2.350808940148    30.18371078   338.37959518
 C     19  10   6     2.894390238636   117.50718925   182.24751724
 C     11   3   1     2.346817686246    30.26301051   338.51472631
 C     12   3   1     2.912486611217   112.79858152   126.57955658
 C     12   3   1     2.934177654165   111.16843133   252.43990415
 C     14   4   1     2.945178861063   111.60132513   113.86582254
 C     14   4   1     2.918616470307   109.53835841   235.80283434
 C     16   5   1     2.924672208632   109.57514392   103.49029729
 C     16   5   1     2.963880051520   113.40625139   225.06748211
 C     18   6   1     2.914003385470   112.24561124   133.74548857
 C     18   6   1     2.923759216992   111.07047222   259.89584843
 C     20  19  10     2.969375345353   110.13864653   104.81542119
 C     30  20  19     2.894781444485   116.05610600   299.58604698
 C     20  19  10     2.941335885576   109.06110823   344.08690230
 C     32  20  19     2.906515854812   116.26125623   294.89721816
 H     22  12   3     2.065987131351   107.84240104   187.90560748
 H     22  12   3     2.057265370726   110.44661994    67.60517444
 H     22  12   3     2.070286841986   110.43016260   306.30182840
 H     23  12   3     2.060264464415   109.79532370   291.36246374
 H     23  12   3     2.067398312044   108.85916438   170.95095374
 H     23  12   3     2.067316590576   110.28759236    51.45356509
 H     24  14   4     2.069280014360   109.84773802   187.60625228
 H     24  14   4     2.060789818842   108.36739264    68.41292808
 H     24  14   4     2.063351617832   111.94958615   308.77805592
 H     25  14   4     2.060627740597   109.85368349   298.24333712
 H     25  14   4     2.063285367853   109.42244605   178.29893963
 H     25  14   4     2.066334650471   109.71296429    59.18942390
 H     26  16   5     2.064591730168   109.32331415   182.31668903
 H     26  16   5     2.062743645358   108.83092633    63.16048812
 H     26  16   5     2.064887108025   110.64326269   302.77155632
 H     27  16   5     2.055338213251   108.86084070   280.98357749
 H     27  16   5     2.066918309877   108.98758075   161.81092738
 H     27  16   5     2.062511294242   111.62906396    40.55418277
 H     28  18   6     2.055641603112   110.84053028    65.90684548
 H     28  18   6     2.069046009600   109.85097140   304.69655168
 H     28  18   6     2.065627377380   107.99820836   186.43166384
 H     29  18   6     2.062859243403   109.97190367   293.39089969
 H     29  18   6     2.067423823139   109.33735464   173.31259833
 H     29  18   6     2.068815784420   110.10166734    53.94239049
 H     30  20  19     2.067996853852   108.24257085    63.05937557
 H     30  20  19     2.072838055923   105.86851224   177.46282412
 H     31  30  20     2.070281604246   108.96814182   176.55517419
 H     31  30  20     2.069830579588   111.69174652    57.82307337
 H     31  30  20     2.067737808825   112.02514571   295.96315475
 H     32  20  19     2.068440405563   107.17352174   172.79328778
 H     32  20  19     2.064886305705   107.66312770    57.20461128
 H     33  32  20     2.072712199816   109.60022527   179.17543909
 H     33  32  20     2.067415421195   111.57994563    59.89907357
 H     33  32  20     2.067739739921   111.87564502   298.20240463

---------------------
BASIS SET INFORMATION
---------------------
There are 6 groups of distinct atoms

 Group   1 Type Fe  : 14s9p5d1f contracted to 5s3p2d1f pattern {63311/531/41/1}
 Group   2 Type Cl  : 10s7p1d contracted to 4s3p1d pattern {5311/511/1}
 Group   3 Type N   : 7s4p1d contracted to 3s2p1d pattern {511/31/1}
 Group   4 Type O   : 7s4p1d contracted to 3s2p1d pattern {511/31/1}
 Group   5 Type C   : 7s4p1d contracted to 3s2p1d pattern {511/31/1}
 Group   6 Type H   : 4s1p contracted to 2s1p pattern {31/1}

Atom   0Fe   basis set group =>   1
Atom   1Cl   basis set group =>   2
Atom   2N    basis set group =>   3
Atom   3N    basis set group =>   3
Atom   4N    basis set group =>   3
Atom   5N    basis set group =>   3
Atom   6O    basis set group =>   4
Atom   7O    basis set group =>   4
Atom   8O    basis set group =>   4
Atom   9O    basis set group =>   4
Atom  10O    basis set group =>   4
Atom  11C    basis set group =>   5
Atom  12C    basis set group =>   5
Atom  13C    basis set group =>   5
Atom  14C    basis set group =>   5
Atom  15C    basis set group =>   5
Atom  16C    basis set group =>   5
Atom  17C    basis set group =>   5
Atom  18C    basis set group =>   5
Atom  19C    basis set group =>   5
Atom  20C    basis set group =>   5
Atom  21C    basis set group =>   5
Atom  22C    basis set group =>   5
Atom  23C    basis set group =>   5
Atom  24C    basis set group =>   5
Atom  25C    basis set group =>   5
Atom  26C    basis set group =>   5
Atom  27C    basis set group =>   5
Atom  28C    basis set group =>   5
Atom  29C    basis set group =>   5
Atom  30C    basis set group =>   5
Atom  31C    basis set group =>   5
Atom  32C    basis set group =>   5
Atom  33H    basis set group =>   6
Atom  34H    basis set group =>   6
Atom  35H    basis set group =>   6
Atom  36H    basis set group =>   6
Atom  37H    basis set group =>   6
Atom  38H    basis set group =>   6
Atom  39H    basis set group =>   6
Atom  40H    basis set group =>   6
Atom  41H    basis set group =>   6
Atom  42H    basis set group =>   6
Atom  43H    basis set group =>   6
Atom  44H    basis set group =>   6
Atom  45H    basis set group =>   6
Atom  46H    basis set group =>   6
Atom  47H    basis set group =>   6
Atom  48H    basis set group =>   6
Atom  49H    basis set group =>   6
Atom  50H    basis set group =>   6
Atom  51H    basis set group =>   6
Atom  52H    basis set group =>   6
Atom  53H    basis set group =>   6
Atom  54H    basis set group =>   6
Atom  55H    basis set group =>   6
Atom  56H    basis set group =>   6
Atom  57H    basis set group =>   6
Atom  58H    basis set group =>   6
Atom  59H    basis set group =>   6
Atom  60H    basis set group =>   6
Atom  61H    basis set group =>   6
Atom  62H    basis set group =>   6
Atom  63H    basis set group =>   6
Atom  64H    basis set group =>   6
Atom  65H    basis set group =>   6
Atom  66H    basis set group =>   6
-------------------------------
AUXILIARY BASIS SET INFORMATION
-------------------------------
There are 6 groups of distinct atoms

 Group   1 Type Fe  : 19s5p5d3f3g contracted to 8s5p5d2f3g pattern {121111111/11111/11111/21/111}
 Group   2 Type Cl  : 14s5p5d2f1g contracted to 8s4p3d1f1g pattern {71111111/2111/311/2/1}
 Group   3 Type N   : 12s5p4d2f1g contracted to 6s4p3d1f1g pattern {711111/2111/211/2/1}
 Group   4 Type O   : 12s5p4d2f1g contracted to 6s4p3d1f1g pattern {711111/2111/211/2/1}
 Group   5 Type C   : 12s5p4d2f1g contracted to 6s4p3d1f1g pattern {711111/2111/211/2/1}
 Group   6 Type H   : 5s2p1d contracted to 3s1p1d pattern {311/2/1}

Atom   0Fe   basis set group =>   1
Atom   1Cl   basis set group =>   2
Atom   2N    basis set group =>   3
Atom   3N    basis set group =>   3
Atom   4N    basis set group =>   3
Atom   5N    basis set group =>   3
Atom   6O    basis set group =>   4
Atom   7O    basis set group =>   4
Atom   8O    basis set group =>   4
Atom   9O    basis set group =>   4
Atom  10O    basis set group =>   4
Atom  11C    basis set group =>   5
Atom  12C    basis set group =>   5
Atom  13C    basis set group =>   5
Atom  14C    basis set group =>   5
Atom  15C    basis set group =>   5
Atom  16C    basis set group =>   5
Atom  17C    basis set group =>   5
Atom  18C    basis set group =>   5
Atom  19C    basis set group =>   5
Atom  20C    basis set group =>   5
Atom  21C    basis set group =>   5
Atom  22C    basis set group =>   5
Atom  23C    basis set group =>   5
Atom  24C    basis set group =>   5
Atom  25C    basis set group =>   5
Atom  26C    basis set group =>   5
Atom  27C    basis set group =>   5
Atom  28C    basis set group =>   5
Atom  29C    basis set group =>   5
Atom  30C    basis set group =>   5
Atom  31C    basis set group =>   5
Atom  32C    basis set group =>   5
Atom  33H    basis set group =>   6
Atom  34H    basis set group =>   6
Atom  35H    basis set group =>   6
Atom  36H    basis set group =>   6
Atom  37H    basis set group =>   6
Atom  38H    basis set group =>   6
Atom  39H    basis set group =>   6
Atom  40H    basis set group =>   6
Atom  41H    basis set group =>   6
Atom  42H    basis set group =>   6
Atom  43H    basis set group =>   6
Atom  44H    basis set group =>   6
Atom  45H    basis set group =>   6
Atom  46H    basis set group =>   6
Atom  47H    basis set group =>   6
Atom  48H    basis set group =>   6
Atom  49H    basis set group =>   6
Atom  50H    basis set group =>   6
Atom  51H    basis set group =>   6
Atom  52H    basis set group =>   6
Atom  53H    basis set group =>   6
Atom  54H    basis set group =>   6
Atom  55H    basis set group =>   6
Atom  56H    basis set group =>   6
Atom  57H    basis set group =>   6
Atom  58H    basis set group =>   6
Atom  59H    basis set group =>   6
Atom  60H    basis set group =>   6
Atom  61H    basis set group =>   6
Atom  62H    basis set group =>   6
Atom  63H    basis set group =>   6
Atom  64H    basis set group =>   6
Atom  65H    basis set group =>   6
Atom  66H    basis set group =>   6
------------------------------------------------------------------------------
                           ORCA GTO INTEGRAL CALCULATION
                           -- RI-GTO INTEGRALS CHOSEN --
------------------------------------------------------------------------------

                         BASIS SET STATISTICS AND STARTUP INFO

Gaussian basis set:
 # of primitive gaussian shells          ...  589
 # of primitive gaussian functions       ... 1091
 # of contracted shells                  ...  307
 # of contracted basis functions         ...  653
 Highest angular momentum                ...    3
 Maximum contraction depth               ...    6
Auxiliary gaussian basis set:
 # of primitive gaussian shells          ... 1078
 # of primitive gaussian functions       ... 2898
 # of contracted shells                  ...  675
 # of contracted aux-basis functions     ... 2033
 Highest angular momentum                ...    4
 Maximum contraction depth               ...   12
Ratio of auxiliary to basis functions    ...  3.11
Integral package used                  ... LIBINT
 One Electron integrals                  ... done
 Ordering auxiliary basis shells         ... done
 Integral threshhold             Thresh  ...  1.000e-10
 Primitive cut-off               TCut    ...  1.000e-11
 Pre-screening matrix                    ... done
 Shell pair data                         ... 
 Ordering of the shell pairs             ... done (   0.007 sec) 33506 of 47278 pairs
 Determination of significant pairs      ... done (   0.000 sec)
 Creation of shell pair data             ... done (   0.004 sec)
 Storage of shell pair data              ... done (   0.005 sec)
 Shell pair data done in (   0.016 sec)
 Computing two index integrals           ... done
 Cholesky decomposition of the V-matrix  ... done


Timings:
 Total evaluation time                   ...   0.768 sec (  0.013 min)
 One electron matrix time                ...   0.281 sec (  0.005 min) = 36.5%
 Schwartz matrix evaluation time         ...   0.282 sec (  0.005 min) = 36.7%
 Two index repulsion integral time       ...   0.074 sec (  0.001 min) =  9.7%
 Cholesky decomposition of V             ...   0.095 sec (  0.002 min) = 12.4%
 Three index repulsion integral time     ...   0.000 sec (  0.000 min) =  0.0%

-------------------------------------------------------------------------------
                                 ORCA SCF
-------------------------------------------------------------------------------

------------
SCF SETTINGS
------------
Hamiltonian:
 Density Functional     Method          .... DFT(GTOs)
 Exchange Functional    Exchange        .... B88
   X-Alpha parameter    XAlpha          ....  0.666667
   Becke's b parameter  XBeta           ....  0.004200
 Correlation Functional Correlation     .... P86
 LDA part of GGA corr.  LDAOpt          .... PW91-LDA
 Gradients option       PostSCFGGA      .... off
   Density functional embedding theory  .... OFF
 RI-approximation to the Coulomb term is turned on
   Number of auxiliary basis functions  .... 2033


General Settings:
 Integral files         IntName         .... moess
 Hartree-Fock type      HFTyp           .... UHF
 Total Charge           Charge          ....   -1
 Multiplicity           Mult            ....    5
 Number of Electrons    NEL             ....  278
 Basis Dimension        Dim             ....  653
 Nuclear Repulsion      ENuc            ....   5035.5489344226 Eh

Convergence Acceleration:
 DIIS                   CNVDIIS         .... on
   Start iteration      DIISMaxIt       ....    12
   Startup error        DIISStart       ....  0.200000
   # of expansion vecs  DIISMaxEq       ....     5
   Bias factor          DIISBfac        ....   1.050
   Max. coefficient     DIISMaxC        ....  10.000
 Newton-Raphson         CNVNR           .... off
 SOSCF                  CNVSOSCF        .... off
 Level Shifting         CNVShift        .... on
   Level shift para.    LevelShift      ....    0.2500
   Turn off err/grad.   ShiftErr        ....    0.0010
 Zerner damping         CNVZerner       .... off
 Static damping         CNVDamp         .... on
   Fraction old density DampFac         ....    0.7000
   Max. Damping (<1)    DampMax         ....    0.9800
   Min. Damping (>=0)   DampMin         ....    0.0000
   Turn off err/grad.   DampErr         ....    0.1000
 Fernandez-Rico         CNVRico         .... off

SCF Procedure:
 Maximum # iterations   MaxIter         ....   125
 SCF integral mode      SCFMode         .... Direct
   Integral package                     .... LIBINT
 Reset frequency        DirectResetFreq ....    20
 Integral Threshold     Thresh          ....  1.000e-10 Eh
 Primitive CutOff       TCut            ....  1.000e-11 Eh

Convergence Tolerance:
 Convergence Check Mode ConvCheckMode   .... Total+1el-Energy
 Convergence forced     ConvForced      .... 0
 Energy Change          TolE            ....  1.000e-06 Eh
 1-El. energy change                    ....  1.000e-03 Eh
 DIIS Error             TolErr          ....  1.000e-06


Diagonalization of the overlap matrix:
Smallest eigenvalue                        ... 6.533e-04
Time for diagonalization                   ...    0.062 sec
Threshold for overlap eigenvalues          ... 1.000e-08
Number of eigenvalues below threshold      ... 0
Time for construction of square roots      ...    0.037 sec
Total time needed                          ...    0.101 sec

-------------------
DFT GRID GENERATION
-------------------

General Integration Accuracy     IntAcc      ...  4.340
Radial Grid Type                 RadialGrid  ... Gauss-Chebyshev
Angular Grid (max. acc.)         AngularGrid ... Lebedev-110
Angular grid pruning method      GridPruning ... 3 (G Style)
Weight generation scheme         WeightScheme... Becke
Basis function cutoff            BFCut       ...    1.0000e-10
Integration weight cutoff        WCut        ...    1.0000e-14
Grids for H and He will be reduced by one unit

# of grid points (after initial pruning)     ...  83572 (   0.1 sec)
# of grid points (after weights+screening)   ...  71674 (   1.2 sec)
nearest neighbour list constructed           ...    0.0 sec
Grid point re-assignment to atoms done       ...    0.0 sec
Grid point division into batches done        ...    0.1 sec
Reduced shell lists constructed in    1.1 sec

Total number of grid points                  ...    71674
Total number of batches                      ...     1151
Average number of points per batch           ...       62
Average number of grid points per atom       ...     1070
Average number of shells per batch           ...   126.88 (41.33%)
Average number of basis functions per batch  ...   247.53 (37.91%)
Average number of large shells per batch     ...    73.61 (58.01%)
Average number of large basis fcns per batch ...   144.64 (58.43%)
Maximum spatial batch extension              ...  19.84, 20.27, 21.09 au
Average spatial batch extension              ...   2.96,  2.99,  3.13 au

Time for grid setup =    2.381 sec

------------------------------
INITIAL GUESS: MODEL POTENTIAL
------------------------------
Loading Hartree-Fock densities                     ... done
Calculating cut-offs                               ... done
Setting up the integral package                    ... done
Initializing the effective Hamiltonian             ... done
Starting the Coulomb interaction                   ... done (   3.5 sec)
Reading the grid                                   ... done
Mapping shells                                     ... done
Starting the XC term evaluation                    ... done (   1.9 sec)
  promolecular density results
     # of electrons  =    276.995046724
     EX              =   -272.439133629
     EC              =    -10.763349252
     EX+EC           =   -283.202482881
Transforming the Hamiltonian                       ... done (   0.0 sec)
Diagonalizing the Hamiltonian                      ... done (   0.1 sec)
Back transforming the eigenvectors                 ... done (   0.0 sec)
Now organizing SCF variables                       ... done
                      ------------------
                      INITIAL GUESS DONE (   8.0 sec)
                      ------------------
--------------
SCF ITERATIONS
--------------
ITER       Energy         Delta-E        Max-DP      RMS-DP      [F,P]     Damp
               ***  Starting incremental Fock matrix formation  ***
  0  -3175.5885964773   0.000000000000 0.30193197  0.00133490  0.4241620 0.7000
  1  -3175.9385121640  -0.349915686774 0.69053704  0.00265707  0.2791911 0.7000
  2  -3175.7030507484   0.235461415617 0.20135153  0.00117197  0.2577730 0.7000
  3  -3175.7838669729  -0.080816224524 0.50606557  0.00178066  0.3212422 0.7000
                               ***Turning on DIIS***
  4  -3175.5820079850   0.201858987951 0.26947640  0.00128702  0.1985396 0.7000
  5  -3175.7124825853  -0.130474600282 0.18743550  0.00081094  0.3322931 0.7000
  6  -3174.7846870561   0.927795529201 0.13007274  0.00058619  0.6053728 0.7000
  7  -3174.0275481886   0.757138867478 0.09024664  0.00044033  0.8197999 0.7000
  8  -3173.5987861062   0.428762082413 0.06278450  0.00034523  0.9739167 0.7000
  9  -3173.4083273630   0.190458743181 0.04500989  0.00031951  1.0753987 0.7000
 10  -3173.5692417125  -0.160914349529 0.63575406  0.00223968  1.0955856 0.7000
 11  -3176.1574821753  -2.588240462733 0.50486366  0.00167160  0.1992960 0.7000
 12  -3175.4322863394   0.725195835871 0.13960363  0.00077438  0.3644682 0.7000
 13  -3174.4134923920   1.018793947401 0.28119363  0.00099313  0.6049578 0.7000
 14  -3174.4148200643  -0.001327672281 0.28569863  0.00096337  0.6655406 0.7000
 15  -3174.8333394700  -0.418519405701 0.21858516  0.00073559  0.6471174 0.7000
 16  -3175.1095389438  -0.276199473835 0.16377697  0.00087431  0.6260032 0.7000
 17  -3176.2824228452  -1.172883901423 0.13190067  0.00073511  0.1982880 0.7000
 18  -3176.2964693606  -0.014046515321 0.07725320  0.00050885  0.2603085 0.7000
 19  -3175.8996283332   0.396841027404 0.05253405  0.00039915  0.5458875 0.7000
               *** Restarting incremental Fock matrix formation ***
                                   *** Resetting DIIS ***
 20  -3175.6051906458   0.294437687351 0.63659204  0.00241286  0.7035563 0.7000
 21  -3176.1737148959  -0.568524250067 0.19722020  0.00087797  0.1420767 0.7000
 22  -3175.5654798478   0.608235048093 0.16009722  0.00064735  0.4003888 0.7000
 23  -3175.5139834384   0.051496409408 0.12026873  0.00050317  0.4801297 0.7000
 24  -3175.8399127540  -0.325929315595 0.08659655  0.00039745  0.4622288 0.7000
 25  -3176.2322751265  -0.392362372520 0.06769721  0.00032578  0.3929006 0.7000
 26  -3176.5411064694  -0.308831342895 0.08369080  0.00034502  0.3057236 0.7000
 27  -3176.8151228180  -0.274016348595 0.17808460  0.00076169  0.0957142 0.0000
 28  -3176.8800545594  -0.064931741384 0.00591675  0.00003644  0.2453442 0.7000
 29  -3176.8970755066  -0.017020947215 0.00819773  0.00004591  0.2266490 0.7000
 30  -3176.9175370096  -0.020461502996 0.00879894  0.00004567  0.2032414 0.7000
 31  -3176.9368001548  -0.019263145236 0.00885096  0.00004276  0.1803550 0.7000
 32  -3176.9541466692  -0.017346514393 0.02718156  0.00013946  0.1589619 0.7000
 33  -3177.0014451009  -0.047298431742 0.07623498  0.00033317  0.0762148 0.0000
 34  -3177.0009743678   0.000470733125 0.00577116  0.00002370  0.1139060 0.7000
 35  -3177.0056284678  -0.004654099999 0.00866440  0.00003093  0.1035509 0.7000
 36  -3177.0118010225  -0.006172554716 0.02958000  0.00009838  0.0875571 0.0000
 37  -3177.0262840639  -0.014483041368 0.00717280  0.00004659  0.0332545 0.0000
 38  -3177.0281594158  -0.001875351900 0.01091271  0.00004351  0.0242101 0.0000
 39  -3177.0295314838  -0.001372067979 0.00556747  0.00001862  0.0052425 0.0000
               *** Restarting incremental Fock matrix formation ***
                                   *** Resetting DIIS ***
 40  -3177.0296498141  -0.000118330340 0.00435086  0.00002498  0.0032296 0.0000
 41  -3177.0293800395   0.000269774633 0.00364967  0.00001261  0.0124924 0.0000
 42  -3177.0296526266  -0.000272587153 0.00203205  0.00000735  0.0048914 0.0000
 43  -3177.0297218314  -0.000069204741 0.00137759  0.00000490  0.0018354 0.0000
 44  -3177.0297382738  -0.000016442432 0.00498536  0.00002840  0.0003108 0.0000
 45  -3177.0297571736  -0.000018899747 0.00013568  0.00000118  0.0011089 0.0000
 46  -3177.0297598401  -0.000002666493 0.00060507  0.00000310  0.0009290 0.0000
 47  -3177.0297630975  -0.000003257449 0.00084407  0.00000294  0.0001393 0.0000
 48  -3177.0297614165   0.000001680951 0.00060247  0.00000230  0.0008887 0.0000
 49  -3177.0297623168  -0.000000900292 0.00043166  0.00000195  0.0005838 0.0000
 50  -3177.0297627158  -0.000000398922 0.00011319  0.00000053  0.0004843 0.0000
 51  -3177.0297630794  -0.000000363628 0.00013102  0.00000064  0.0002279 0.0000
 52  -3177.0297630476   0.000000031781 0.00009464  0.00000062  0.0001202 0.0000
 53  -3177.0297630939  -0.000000046291 0.00005892  0.00000041  0.0000423 0.0000
 54  -3177.0297631623  -0.000000068399 0.00006088  0.00000039  0.0000722 0.0000
                 **** Energy Check signals convergence ****

               *****************************************************
               *                     SUCCESS                       *
               *           SCF CONVERGED AFTER  55 CYCLES          *
               *****************************************************

Setting up the final grid:

General Integration Accuracy     IntAcc      ...  4.670
Radial Grid Type                 RadialGrid  ... Gauss-Chebyshev
Angular Grid (max. acc.)         AngularGrid ... Lebedev-302
Angular grid pruning method      GridPruning ... 3 (G Style)
Weight generation scheme         WeightScheme... Becke
Basis function cutoff            BFCut       ...    1.0000e-10
Integration weight cutoff        WCut        ...    1.0000e-14
Grids for H and He will be reduced by one unit

# of grid points (after initial pruning)     ... 324346 (   0.2 sec)
# of grid points (after weights+screening)   ... 270131 (   5.0 sec)
nearest neighbour list constructed           ...    0.0 sec
Grid point re-assignment to atoms done       ...    0.0 sec
Grid point division into batches done        ...    0.8 sec
Reduced shell lists constructed in    4.4 sec

Total number of grid points                  ...   270131
Total number of batches                      ...     4261
Average number of points per batch           ...       63
Average number of grid points per atom       ...     4032
Average number of shells per batch           ...   113.75 (37.05%)
Average number of basis functions per batch  ...   219.59 (33.63%)
Average number of large shells per batch     ...    64.80 (56.96%)
Average number of large basis fcns per batch ...   125.72 (57.25%)
Maximum spatial batch extension              ...  20.81, 23.71, 21.68 au
Average spatial batch extension              ...   1.92,  1.95,  1.99 au

Final grid set up in    9.6 sec
Final integration                            ... done (  13.1 sec)
Change in XC energy                          ...    -0.000087559
Integrated number of electrons               ...   278.000303011
Previous integrated no of electrons          ...   278.004137016

----------------
TOTAL SCF ENERGY
----------------

Total Energy       :        -3177.02985059 Eh          -86451.37734 eV

Components:
Nuclear Repulsion  :         5035.54893442 Eh          137024.25268 eV
Electronic Energy  :        -8212.57878502 Eh         -223475.63002 eV
One Electron Energy:       -14424.22024524 Eh         -392502.98734 eV
Two Electron Energy:         6211.64146022 Eh          169027.35732 eV

Virial components:
Potential Energy   :        -6333.82444507 Eh         -172352.12536 eV
Kinetic Energy     :         3156.79459447 Eh           85900.74803 eV
Virial Ratio       :            2.00641006


DFT components:
N(Alpha)           :      141.000150632943 electrons
N(Beta)            :      137.000152377689 electrons
N(Total)           :      278.000303010632 electrons
E(X)               :     -276.068188793224 Eh       
E(C)               :      -10.770428258837 Eh       
E(XC)              :     -286.838617052061 Eh       
DFET-embed. en.    :        0.000000000000 Eh       

---------------
SCF CONVERGENCE
---------------

  Last Energy change         ...    1.2725e-07  Tolerance :   1.0000e-06
  Last MAX-Density change    ...    1.7083e-05  Tolerance :   1.0000e-05
  Last RMS-Density change    ...    1.5915e-07  Tolerance :   1.0000e-06
  Last DIIS Error            ...    3.4464e-05  Tolerance :   1.0000e-06

             **** THE GBW FILE WAS UPDATED (moess.gbw) ****
             **** DENSITY FILE WAS UPDATED (moess.scfp.tmp) ****
             **** ENERGY FILE WAS UPDATED (moess.en.tmp) ****
----------------------
UHF SPIN CONTAMINATION
----------------------

Warning: in a DFT calculation there is little theoretical justification to 
         calculate <S**2> as in Hartree-Fock theory. We will do it anyways
         but you should keep in mind that the values have only limited relevance

Expectation value of <S**2>     :     6.046357
Ideal value S*(S+1) for S=2.0   :     6.000000
Deviation                       :     0.046357

----------------
ORBITAL ENERGIES
----------------
                 SPIN UP ORBITALS
  NO   OCC          E(Eh)            E(eV) 
   0   1.0000    -254.789882     -6933.1852 
   1   1.0000    -100.533408     -2735.6531 
   2   1.0000     -29.577148      -804.8351 
   3   1.0000     -25.526838      -694.6206 
   4   1.0000     -25.521980      -694.4884 
   5   1.0000     -25.516792      -694.3472 
   6   1.0000     -18.677487      -508.2403 
   7   1.0000     -18.652247      -507.5534 
   8   1.0000     -18.651733      -507.5395 
   9   1.0000     -18.648761      -507.4586 
  10   1.0000     -18.647331      -507.4197 
  11   1.0000     -13.928700      -379.0192 
  12   1.0000     -13.928266      -379.0074 
  13   1.0000     -13.926075      -378.9478 
  14   1.0000     -13.925937      -378.9440 
  15   1.0000      -9.903188      -269.4795 
  16   1.0000      -9.898963      -269.3645 
  17   1.0000      -9.897793      -269.3326 
  18   1.0000      -9.897094      -269.3136 
  19   1.0000      -9.896366      -269.2938 
  20   1.0000      -9.872765      -268.6516 
  21   1.0000      -9.869557      -268.5643 
  22   1.0000      -9.862168      -268.3632 
  23   1.0000      -9.859086      -268.2794 
  24   1.0000      -9.830733      -267.5078 
  25   1.0000      -9.817914      -267.1590 
  26   1.0000      -9.814792      -267.0741 
  27   1.0000      -9.814728      -267.0723 
  28   1.0000      -9.811559      -266.9861 
  29   1.0000      -9.811071      -266.9728 
  30   1.0000      -9.806135      -266.8385 
  31   1.0000      -9.802625      -266.7430 
  32   1.0000      -9.802474      -266.7389 
  33   1.0000      -9.801456      -266.7112 
  34   1.0000      -9.800881      -266.6955 
  35   1.0000      -9.799713      -266.6637 
  36   1.0000      -9.799164      -266.6488 
  37   1.0000      -9.014807      -245.3054 
  38   1.0000      -6.842178      -186.1851 
  39   1.0000      -6.837753      -186.0647 
  40   1.0000      -6.836810      -186.0391 
  41   1.0000      -3.300420       -89.8090 
  42   1.0000      -2.121596       -57.7316 
  43   1.0000      -2.112696       -57.4894 
  44   1.0000      -2.104985       -57.2796 
  45   1.0000      -0.852389       -23.1947 
  46   1.0000      -0.837975       -22.8024 
  47   1.0000      -0.835812       -22.7436 
  48   1.0000      -0.832655       -22.6577 
  49   1.0000      -0.828839       -22.5538 
  50   1.0000      -0.727385       -19.7931 
  51   1.0000      -0.716831       -19.5060 
  52   1.0000      -0.708457       -19.2781 
  53   1.0000      -0.699704       -19.0399 
  54   1.0000      -0.642430       -17.4814 
  55   1.0000      -0.612531       -16.6678 
  56   1.0000      -0.605763       -16.4837 
  57   1.0000      -0.593952       -16.1623 
  58   1.0000      -0.587228       -15.9793 
  59   1.0000      -0.575018       -15.6470 
  60   1.0000      -0.567232       -15.4352 
  61   1.0000      -0.529598       -14.4111 
  62   1.0000      -0.526473       -14.3260 
  63   1.0000      -0.522147       -14.2084 
  64   1.0000      -0.518055       -14.0970 
  65   1.0000      -0.516907       -14.0658 
  66   1.0000      -0.502141       -13.6640 
  67   1.0000      -0.479722       -13.0539 
  68   1.0000      -0.469506       -12.7759 
  69   1.0000      -0.449316       -12.2265 
  70   1.0000      -0.435491       -11.8503 
  71   1.0000      -0.432464       -11.7679 
  72   1.0000      -0.405891       -11.0448 
  73   1.0000      -0.382427       -10.4064 
  74   1.0000      -0.363781        -9.8990 
  75   1.0000      -0.362360        -9.8603 
  76   1.0000      -0.356365        -9.6972 
  77   1.0000      -0.347659        -9.4603 
  78   1.0000      -0.334455        -9.1010 
  79   1.0000      -0.331776        -9.0281 
  80   1.0000      -0.320705        -8.7268 
  81   1.0000      -0.317223        -8.6321 
  82   1.0000      -0.315029        -8.5724 
  83   1.0000      -0.305942        -8.3251 
  84   1.0000      -0.305300        -8.3076 
  85   1.0000      -0.302163        -8.2223 
  86   1.0000      -0.300330        -8.1724 
  87   1.0000      -0.297052        -8.0832 
  88   1.0000      -0.295744        -8.0476 
  89   1.0000      -0.289973        -7.8906 
  90   1.0000      -0.288184        -7.8419 
  91   1.0000      -0.283834        -7.7235 
  92   1.0000      -0.275684        -7.5018 
  93   1.0000      -0.274284        -7.4637 
  94   1.0000      -0.271775        -7.3954 
  95   1.0000      -0.268753        -7.3131 
  96   1.0000      -0.265151        -7.2151 
  97   1.0000      -0.262580        -7.1452 
  98   1.0000      -0.259635        -7.0650 
  99   1.0000      -0.256826        -6.9886 
 100   1.0000      -0.252425        -6.8688 
 101   1.0000      -0.246333        -6.7031 
 102   1.0000      -0.245406        -6.6778 
 103   1.0000      -0.241879        -6.5819 
 104   1.0000      -0.239118        -6.5067 
 105   1.0000      -0.238675        -6.4947 
 106   1.0000      -0.234981        -6.3941 
 107   1.0000      -0.232894        -6.3374 
 108   1.0000      -0.230759        -6.2793 
 109   1.0000      -0.225426        -6.1341 
 110   1.0000      -0.224103        -6.0981 
 111   1.0000      -0.221308        -6.0221 
 112   1.0000      -0.220281        -5.9941 
 113   1.0000      -0.218398        -5.9429 
 114   1.0000      -0.213235        -5.8024 
 115   1.0000      -0.212758        -5.7894 
 116   1.0000      -0.210735        -5.7344 
 117   1.0000      -0.209849        -5.7103 
 118   1.0000      -0.208354        -5.6696 
 119   1.0000      -0.206084        -5.6078 
 120   1.0000      -0.205165        -5.5828 
 121   1.0000      -0.202780        -5.5179 
 122   1.0000      -0.198922        -5.4130 
 123   1.0000      -0.197992        -5.3876 
 124   1.0000      -0.194282        -5.2867 
 125   1.0000      -0.192234        -5.2310 
 126   1.0000      -0.181978        -4.9519 
 127   1.0000      -0.172138        -4.6841 
 128   1.0000      -0.171128        -4.6566 
 129   1.0000      -0.148406        -4.0383 
 130   1.0000      -0.122832        -3.3424 
 131   1.0000      -0.120003        -3.2654 
 132   1.0000      -0.119815        -3.2603 
 133   1.0000      -0.118880        -3.2349 
 134   1.0000      -0.110609        -3.0098 
 135   1.0000      -0.108472        -2.9517 
 136   1.0000      -0.107124        -2.9150 
 137   1.0000      -0.104529        -2.8444 
 138   1.0000      -0.101635        -2.7656 
 139   1.0000      -0.092477        -2.5164 
 140   1.0000      -0.088852        -2.4178 
 141   0.0000      -0.024124        -0.6564 
 142   0.0000       0.030133         0.8200 
 143   0.0000       0.072167         1.9638 
 144   0.0000       0.081340         2.2134 
 145   0.0000       0.083210         2.2643 
 146   0.0000       0.095492         2.5985 
 147   0.0000       0.116645         3.1741 
 148   0.0000       0.142134         3.8677 
 149   0.0000       0.150072         4.0837 
 150   0.0000       0.154076         4.1926 
 151   0.0000       0.161275         4.3885 
 152   0.0000       0.164537         4.4773 
 153   0.0000       0.172830         4.7030 
 154   0.0000       0.176787         4.8106 
 155   0.0000       0.181648         4.9429 
 156   0.0000       0.186337         5.0705 
 157   0.0000       0.187978         5.1152 
 158   0.0000       0.189952         5.1688 
 159   0.0000       0.192181         5.2295 
 160   0.0000       0.194462         5.2916 
 161   0.0000       0.198500         5.4014 
 162   0.0000       0.204984         5.5779 
 163   0.0000       0.210523         5.7286 
 164   0.0000       0.211005         5.7417 
 165   0.0000       0.214782         5.8445 
 166   0.0000       0.215461         5.8630 
 167   0.0000       0.219638         5.9766 
 168   0.0000       0.220648         6.0041 
 169   0.0000       0.225707         6.1418 
 170   0.0000       0.226467         6.1625 
 171   0.0000       0.229588         6.2474 
 172   0.0000       0.230003         6.2587 
 173   0.0000       0.235002         6.3947 
 174   0.0000       0.238772         6.4973 
 175   0.0000       0.239691         6.5223 
 176   0.0000       0.241809         6.5800 
 177   0.0000       0.242459         6.5977 
 178   0.0000       0.245832         6.6894 
 179   0.0000       0.248314         6.7570 
 180   0.0000       0.250373         6.8130 
 181   0.0000       0.251249         6.8368 
 182   0.0000       0.258423         7.0320 
 183   0.0000       0.262269         7.1367 
 184   0.0000       0.263463         7.1692 
 185   0.0000       0.265919         7.2360 
 186   0.0000       0.270284         7.3548 
 187   0.0000       0.271715         7.3938 
 188   0.0000       0.275603         7.4995 
 189   0.0000       0.277996         7.5646 
 190   0.0000       0.280175         7.6239 
 191   0.0000       0.281862         7.6699 
 192   0.0000       0.289899         7.8886 
 193   0.0000       0.295292         8.0353 
 194   0.0000       0.298834         8.1317 
 195   0.0000       0.302683         8.2364 
 196   0.0000       0.310917         8.4605 
 197   0.0000       0.314248         8.5511 
 198   0.0000       0.318361         8.6630 
 199   0.0000       0.319197         8.6858 
 200   0.0000       0.322930         8.7874 
 201   0.0000       0.326670         8.8891 
 202   0.0000       0.336612         9.1597 
 203   0.0000       0.350825         9.5464 
 204   0.0000       0.353631         9.6228 
 205   0.0000       0.363034         9.8786 
 206   0.0000       0.366493         9.9728 
 207   0.0000       0.381970        10.3939 
 208   0.0000       0.391843        10.6626 
 209   0.0000       0.397952        10.8288 
 210   0.0000       0.414139        11.2693 
 211   0.0000       0.429719        11.6932 
 212   0.0000       0.432516        11.7694 
 213   0.0000       0.447137        12.1672 
 214   0.0000       0.457217        12.4415 
 215   0.0000       0.460912        12.5420 
 216   0.0000       0.471737        12.8366 
 217   0.0000       0.471824        12.8390 
 218   0.0000       0.475764        12.9462 
 219   0.0000       0.480689        13.0802 
 220   0.0000       0.486768        13.2456 
 221   0.0000       0.494414        13.4537 
 222   0.0000       0.498956        13.5773 
 223   0.0000       0.504742        13.7347 
 224   0.0000       0.507742        13.8164 
 225   0.0000       0.511609        13.9216 
 226   0.0000       0.516985        14.0679 
 227   0.0000       0.519656        14.1405 
 228   0.0000       0.525428        14.2976 
 229   0.0000       0.529126        14.3983 
 230   0.0000       0.536785        14.6067 
 231   0.0000       0.537644        14.6300 
 232   0.0000       0.545546        14.8450 
 233   0.0000       0.546758        14.8780 
 234   0.0000       0.557188        15.1619 
 235   0.0000       0.562202        15.2983 
 236   0.0000       0.571857        15.5610 
 237   0.0000       0.575322        15.6553 
 238   0.0000       0.584513        15.9054 
 239   0.0000       0.594668        16.1818 
 240   0.0000       0.599613        16.3163 
 241   0.0000       0.600607        16.3433 
 242   0.0000       0.605628        16.4800 
 243   0.0000       0.612243        16.6600 
 244   0.0000       0.617977        16.8160 
 245   0.0000       0.623067        16.9545 
 246   0.0000       0.626285        17.0421 
 247   0.0000       0.633743        17.2450 
 248   0.0000       0.639788        17.4095 
 249   0.0000       0.644371        17.5342 
 250   0.0000       0.645929        17.5766 
 251   0.0000       0.651664        17.7327 
 252   0.0000       0.653064        17.7708 
 253   0.0000       0.655117        17.8266 
 254   0.0000       0.660380        17.9699 
 255   0.0000       0.662223        18.0200 
 256   0.0000       0.666766        18.1436 
 257   0.0000       0.670611        18.2482 
 258   0.0000       0.674222        18.3465 
 259   0.0000       0.679453        18.4888 
 260   0.0000       0.682571        18.5737 
 261   0.0000       0.688006        18.7216 
 262   0.0000       0.689382        18.7590 
 263   0.0000       0.692209        18.8360 
 264   0.0000       0.693426        18.8691 
 265   0.0000       0.697176        18.9711 
 266   0.0000       0.700409        19.0591 
 267   0.0000       0.703531        19.1440 
 268   0.0000       0.706846        19.2343 
 269   0.0000       0.710057        19.3216 
 270   0.0000       0.711319        19.3560 
 271   0.0000       0.714223        19.4350 
 272   0.0000       0.717288        19.5184 
 273   0.0000       0.718377        19.5480 
 274   0.0000       0.723109        19.6768 
 275   0.0000       0.724738        19.7211 
 276   0.0000       0.726718        19.7750 
 277   0.0000       0.732026        19.9194 
 278   0.0000       0.732640        19.9361 
 279   0.0000       0.736247        20.0343 
 280   0.0000       0.737530        20.0692 
 281   0.0000       0.739601        20.1256 
 282   0.0000       0.740342        20.1457 
 283   0.0000       0.741256        20.1706 
 284   0.0000       0.743584        20.2339 
 285   0.0000       0.744461        20.2578 
 286   0.0000       0.749152        20.3855 
 287   0.0000       0.750356        20.4182 
 288   0.0000       0.754713        20.5368 
 289   0.0000       0.758125        20.6296 
 290   0.0000       0.759455        20.6658 
 291   0.0000       0.765744        20.8369 
 292   0.0000       0.768119        20.9016 
 293   0.0000       0.768367        20.9083 
 294   0.0000       0.773983        21.0612 
 295   0.0000       0.775442        21.1009 
 296   0.0000       0.778026        21.1712 
 297   0.0000       0.781784        21.2734 
 298   0.0000       0.788879        21.4665 
 299   0.0000       0.791825        21.5467 
 300   0.0000       0.796480        21.6733 
 301   0.0000       0.802670        21.8417 
 302   0.0000       0.803918        21.8757 
 303   0.0000       0.808553        22.0019 
 304   0.0000       0.809833        22.0367 
 305   0.0000       0.817081        22.2339 
 306   0.0000       0.823153        22.3991 
 307   0.0000       0.826974        22.5031 
 308   0.0000       0.828441        22.5430 
 309   0.0000       0.836786        22.7701 
 310   0.0000       0.843678        22.9577 
 311   0.0000       0.845510        23.0075 
 312   0.0000       0.859477        23.3876 
 313   0.0000       0.863170        23.4881 
 314   0.0000       0.874318        23.7914 
 315   0.0000       0.881140        23.9770 
 316   0.0000       0.883363        24.0375 
 317   0.0000       0.888671        24.1820 
 318   0.0000       0.900586        24.5062 
 319   0.0000       0.904586        24.6150 
 320   0.0000       0.910281        24.7700 
 321   0.0000       0.916506        24.9394 
 322   0.0000       0.927717        25.2445 
 323   0.0000       0.930387        25.3171 
 324   0.0000       0.939639        25.5689 
 325   0.0000       0.944819        25.7098 
 326   0.0000       0.952441        25.9172 
 327   0.0000       0.961224        26.1562 
 328   0.0000       0.963393        26.2153 
 329   0.0000       0.973057        26.4782 
 330   0.0000       0.978437        26.6246 
 331   0.0000       0.984051        26.7774 
 332   0.0000       0.998793        27.1785 
 333   0.0000       1.008594        27.4452 
 334   0.0000       1.012023        27.5385 
 335   0.0000       1.031064        28.0567 
 336   0.0000       1.035873        28.1875 
 337   0.0000       1.039753        28.2931 
 338   0.0000       1.050221        28.5780 
 339   0.0000       1.053303        28.6618 
 340   0.0000       1.059635        28.8341 
 341   0.0000       1.065986        29.0070 
 342   0.0000       1.080202        29.3938 
 343   0.0000       1.091743        29.7078 
 344   0.0000       1.094596        29.7855 
 345   0.0000       1.095275        29.8039 
 346   0.0000       1.103245        30.0208 
 347   0.0000       1.116994        30.3950 
 348   0.0000       1.122246        30.5379 
 349   0.0000       1.132609        30.8199 
 350   0.0000       1.140348        31.0304 
 351   0.0000       1.142301        31.0836 
 352   0.0000       1.156232        31.4627 
 353   0.0000       1.161009        31.5927 
 354   0.0000       1.162427        31.6312 
 355   0.0000       1.168043        31.7841 
 356   0.0000       1.175061        31.9750 
 357   0.0000       1.179948        32.1080 
 358   0.0000       1.192500        32.4496 
 359   0.0000       1.203685        32.7539 
 360   0.0000       1.209805        32.9205 
 361   0.0000       1.217211        33.1220 
 362   0.0000       1.221260        33.2322 
 363   0.0000       1.227198        33.3938 
 364   0.0000       1.242831        33.8192 
 365   0.0000       1.254736        34.1431 
 366   0.0000       1.260981        34.3130 
 367   0.0000       1.265986        34.4492 
 368   0.0000       1.275161        34.6989 
 369   0.0000       1.290132        35.1063 
 370   0.0000       1.303127        35.4599 
 371   0.0000       1.307701        35.5844 
 372   0.0000       1.321557        35.9614 
 373   0.0000       1.323877        36.0245 
 374   0.0000       1.332165        36.2501 
 375   0.0000       1.339222        36.4421 
 376   0.0000       1.345357        36.6090 
 377   0.0000       1.354903        36.8688 
 378   0.0000       1.362904        37.0865 
 379   0.0000       1.371940        37.3324 
 380   0.0000       1.375627        37.4327 
 381   0.0000       1.378671        37.5156 
 382   0.0000       1.386449        37.7272 
 383   0.0000       1.400923        38.1211 
 384   0.0000       1.406584        38.2751 
 385   0.0000       1.412393        38.4332 
 386   0.0000       1.422582        38.7104 
 387   0.0000       1.426398        38.8143 
 388   0.0000       1.441081        39.2138 
 389   0.0000       1.447211        39.3806 
 390   0.0000       1.452704        39.5301 
 391   0.0000       1.459117        39.7046 
 392   0.0000       1.469066        39.9753 
 393   0.0000       1.493688        40.6453 
 394   0.0000       1.497185        40.7405 
 395   0.0000       1.510055        41.0907 
 396   0.0000       1.518543        41.3217 
 397   0.0000       1.523427        41.4546 
 398   0.0000       1.531694        41.6795 
 399   0.0000       1.549298        42.1586 
 400   0.0000       1.559471        42.4354 
 401   0.0000       1.567422        42.6517 
 402   0.0000       1.570268        42.7292 
 403   0.0000       1.576516        42.8992 
 404   0.0000       1.576622        42.9021 
 405   0.0000       1.581798        43.0429 
 406   0.0000       1.584035        43.1038 
 407   0.0000       1.586135        43.1609 
 408   0.0000       1.596311        43.4378 
 409   0.0000       1.601462        43.5780 
 410   0.0000       1.609249        43.7899 
 411   0.0000       1.614270        43.9265 
 412   0.0000       1.619319        44.0639 
 413   0.0000       1.623953        44.1900 
 414   0.0000       1.630524        44.3688 
 415   0.0000       1.636446        44.5300 
 416   0.0000       1.645533        44.7772 
 417   0.0000       1.652826        44.9757 
 418   0.0000       1.664353        45.2893 
 419   0.0000       1.679792        45.7095 
 420   0.0000       1.684023        45.8246 
 421   0.0000       1.691156        46.0187 
 422   0.0000       1.704199        46.3736 
 423   0.0000       1.708099        46.4797 
 424   0.0000       1.713649        46.6308 
 425   0.0000       1.719803        46.7982 
 426   0.0000       1.721313        46.8393 
 427   0.0000       1.732971        47.1565 
 428   0.0000       1.745998        47.5110 
 429   0.0000       1.747160        47.5427 
 430   0.0000       1.755521        47.7702 
 431   0.0000       1.761303        47.9275 
 432   0.0000       1.772764        48.2394 
 433   0.0000       1.777572        48.3702 
 434   0.0000       1.780330        48.4452 
 435   0.0000       1.783394        48.5286 
 436   0.0000       1.783942        48.5435 
 437   0.0000       1.787097        48.6294 
 438   0.0000       1.795574        48.8601 
 439   0.0000       1.800075        48.9825 
 440   0.0000       1.803879        49.0861 
 441   0.0000       1.808653        49.2159 
 442   0.0000       1.811413        49.2911 
 443   0.0000       1.815277        49.3962 
 444   0.0000       1.821321        49.5607 
 445   0.0000       1.822214        49.5850 
 446   0.0000       1.824358        49.6433 
 447   0.0000       1.826317        49.6966 
 448   0.0000       1.830239        49.8033 
 449   0.0000       1.831500        49.8377 
 450   0.0000       1.834470        49.9185 
 451   0.0000       1.840648        50.0866 
 452   0.0000       1.844620        50.1947 
 453   0.0000       1.850626        50.3581 
 454   0.0000       1.853777        50.4438 
 455   0.0000       1.858839        50.5816 
 456   0.0000       1.861878        50.6643 
 457   0.0000       1.866748        50.7968 
 458   0.0000       1.869273        50.8655 
 459   0.0000       1.872700        50.9587 
 460   0.0000       1.877955        51.1018 
 461   0.0000       1.881865        51.2081 
 462   0.0000       1.883559        51.2542 
 463   0.0000       1.893809        51.5332 
 464   0.0000       1.894973        51.5648 
 465   0.0000       1.900972        51.7281 
 466   0.0000       1.904125        51.8139 
 467   0.0000       1.908029        51.9201 
 468   0.0000       1.915912        52.1346 
 469   0.0000       1.917212        52.1700 
 470   0.0000       1.925758        52.4025 
 471   0.0000       1.929632        52.5080 
 472   0.0000       1.931583        52.5611 
 473   0.0000       1.937163        52.7129 
 474   0.0000       1.942438        52.8564 
 475   0.0000       1.944794        52.9205 
 476   0.0000       1.949132        53.0386 
 477   0.0000       1.966076        53.4996 
 478   0.0000       1.974970        53.7417 
 479   0.0000       1.975553        53.7575 
 480   0.0000       1.984978        54.0140 
 481   0.0000       1.988671        54.1145 
 482   0.0000       1.990809        54.1727 
 483   0.0000       1.995090        54.2892 
 484   0.0000       2.002510        54.4911 
 485   0.0000       2.007706        54.6324 
 486   0.0000       2.009520        54.6818 
 487   0.0000       2.010077        54.6970 
 488   0.0000       2.013322        54.7853 
 489   0.0000       2.019117        54.9430 
 490   0.0000       2.021832        55.0168 
 491   0.0000       2.034758        55.3686 
 492   0.0000       2.039582        55.4999 
 493   0.0000       2.044208        55.6257 
 494   0.0000       2.048345        55.7383 
 495   0.0000       2.052437        55.8496 
 496   0.0000       2.054669        55.9104 
 497   0.0000       2.063392        56.1477 
 498   0.0000       2.073346        56.4186 
 499   0.0000       2.085907        56.7604 
 500   0.0000       2.099370        57.1267 
 501   0.0000       2.112302        57.4787 
 502   0.0000       2.113624        57.5146 
 503   0.0000       2.117393        57.6172 
 504   0.0000       2.122345        57.7520 
 505   0.0000       2.131656        58.0053 
 506   0.0000       2.133261        58.0490 
 507   0.0000       2.146413        58.4069 
 508   0.0000       2.162741        58.8512 
 509   0.0000       2.166201        58.9453 
 510   0.0000       2.176138        59.2157 
 511   0.0000       2.194289        59.7096 
 512   0.0000       2.198924        59.8358 
 513   0.0000       2.206687        60.0470 
 514   0.0000       2.217920        60.3527 
 515   0.0000       2.229771        60.6752 
 516   0.0000       2.247161        61.1484 
 517   0.0000       2.249634        61.2157 
 518   0.0000       2.259315        61.4791 
 519   0.0000       2.282434        62.1082 
 520   0.0000       2.292829        62.3910 
 521   0.0000       2.302147        62.6446 
 522   0.0000       2.306385        62.7599 
 523   0.0000       2.324552        63.2543 
 524   0.0000       2.339183        63.6524 
 525   0.0000       2.344426        63.7951 
 526   0.0000       2.361296        64.2541 
 527   0.0000       2.367601        64.4257 
 528   0.0000       2.384423        64.8834 
 529   0.0000       2.386272        64.9338 
 530   0.0000       2.392181        65.0946 
 531   0.0000       2.397183        65.2307 
 532   0.0000       2.404636        65.4335 
 533   0.0000       2.411986        65.6335 
 534   0.0000       2.413451        65.6734 
 535   0.0000       2.425333        65.9967 
 536   0.0000       2.431499        66.1645 
 537   0.0000       2.440065        66.3975 
 538   0.0000       2.444753        66.5251 
 539   0.0000       2.450914        66.6928 
 540   0.0000       2.454675        66.7951 
 541   0.0000       2.456768        66.8521 
 542   0.0000       2.467753        67.1510 
 543   0.0000       2.471957        67.2654 
 544   0.0000       2.476806        67.3973 
 545   0.0000       2.487439        67.6867 
 546   0.0000       2.503567        68.1255 
 547   0.0000       2.508622        68.2631 
 548   0.0000       2.516231        68.4701 
 549   0.0000       2.525290        68.7166 
 550   0.0000       2.535948        69.0067 
 551   0.0000       2.548783        69.3559 
 552   0.0000       2.552913        69.4683 
 553   0.0000       2.559512        69.6479 
 554   0.0000       2.566776        69.8455 
 555   0.0000       2.570403        69.9442 
 556   0.0000       2.576146        70.1005 
 557   0.0000       2.576977        70.1231 
 558   0.0000       2.582271        70.2672 
 559   0.0000       2.588567        70.4385 
 560   0.0000       2.591868        70.5283 
 561   0.0000       2.599770        70.7433 
 562   0.0000       2.604379        70.8688 
 563   0.0000       2.628886        71.5356 
 564   0.0000       2.643351        71.9292 
 565   0.0000       2.649421        72.0944 
 566   0.0000       2.651167        72.1419 
 567   0.0000       2.655429        72.2579 
 568   0.0000       2.661070        72.4114 
 569   0.0000       2.668311        72.6084 
 570   0.0000       2.669598        72.6435 
 571   0.0000       2.673171        72.7407 
 572   0.0000       2.678377        72.8824 
 573   0.0000       2.680814        72.9487 
 574   0.0000       2.684107        73.0383 
 575   0.0000       2.703366        73.5623 
 576   0.0000       2.705763        73.6275 
 577   0.0000       2.711247        73.7768 
 578   0.0000       2.736663        74.4684 
 579   0.0000       2.744440        74.6800 
 580   0.0000       2.772807        75.4519 
 581   0.0000       2.777482        75.5791 
 582   0.0000       2.778410        75.6044 
 583   0.0000       2.781983        75.7016 
 584   0.0000       2.784907        75.7812 
 585   0.0000       2.788142        75.8692 
 586   0.0000       2.799507        76.1785 
 587   0.0000       2.808961        76.4357 
 588   0.0000       2.823660        76.8357 
 589   0.0000       2.852734        77.6268 
 590   0.0000       2.855828        77.7110 
 591   0.0000       2.863023        77.9068 
 592   0.0000       2.888230        78.5927 
 593   0.0000       2.893872        78.7463 
 594   0.0000       2.897177        78.8362 
 595   0.0000       2.899837        78.9086 
 596   0.0000       2.908409        79.1418 
 597   0.0000       2.925585        79.6092 
 598   0.0000       2.931738        79.7766 
 599   0.0000       2.933796        79.8326 
 600   0.0000       2.937711        79.9392 
 601   0.0000       2.944670        80.1285 
 602   0.0000       2.945591        80.1536 
 603   0.0000       2.951640        80.3182 
 604   0.0000       2.960424        80.5572 
 605   0.0000       2.963439        80.6393 
 606   0.0000       2.969925        80.8158 
 607   0.0000       2.973807        80.9214 
 608   0.0000       2.976332        80.9901 
 609   0.0000       2.983582        81.1874 
 610   0.0000       2.988344        81.3170 
 611   0.0000       2.994412        81.4821 
 612   0.0000       2.995908        81.5228 
 613   0.0000       3.008643        81.8693 
 614   0.0000       3.017845        82.1197 
 615   0.0000       3.023862        82.2835 
 616   0.0000       3.030638        82.4678 
 617   0.0000       3.032661        82.5229 
 618   0.0000       3.044356        82.8411 
 619   0.0000       3.048719        82.9599 
 620   0.0000       3.057691        83.2040 
 621   0.0000       3.077327        83.7383 
 622   0.0000       3.077452        83.7417 
 623   0.0000       3.084427        83.9315 
 624   0.0000       3.087893        84.0258 
 625   0.0000       3.115883        84.7875 
 626   0.0000       3.122904        84.9785 
 627   0.0000       3.144086        85.5549 
 628   0.0000       3.149592        85.7048 
 629   0.0000       3.154807        85.8467 
 630   0.0000       3.161411        86.0264 
 631   0.0000       3.167198        86.1838 
 632   0.0000       3.171570        86.3028 
 633   0.0000       3.195316        86.9490 
 634   0.0000       3.209101        87.3241 
 635   0.0000       3.219968        87.6198 
 636   0.0000       3.374755        91.8318 
 637   0.0000       3.417442        92.9933 
 638   0.0000       3.452746        93.9540 
 639   0.0000       3.484461        94.8170 
 640   0.0000       3.512289        95.5743 
 641   0.0000       3.621504        98.5461 
 642   0.0000       3.647299        99.2481 
 643   0.0000       3.651379        99.3591 
 644   0.0000       3.666760        99.7776 
 645   0.0000       3.673576        99.9631 
 646   0.0000       3.996949       108.7625 
 647   0.0000       4.024184       109.5036 
 648   0.0000       4.024841       109.5215 
 649   0.0000       4.049250       110.1857 
 650   0.0000       4.065953       110.6402 
 651   0.0000       4.135970       112.5455 
 652   0.0000       4.155532       113.0778 

                 SPIN DOWN ORBITALS
  NO   OCC          E(Eh)            E(eV) 
   0   1.0000    -254.789301     -6933.1694 
   1   1.0000    -100.531645     -2735.6051 
   2   1.0000     -29.521602      -803.3236 
   3   1.0000     -25.486103      -693.5121 
   4   1.0000     -25.482943      -693.4261 
   5   1.0000     -25.470427      -693.0856 
   6   1.0000     -18.677563      -508.2423 
   7   1.0000     -18.651037      -507.5205 
   8   1.0000     -18.650363      -507.5022 
   9   1.0000     -18.647294      -507.4187 
  10   1.0000     -18.646005      -507.3836 
  11   1.0000     -13.926782      -378.9670 
  12   1.0000     -13.926698      -378.9647 
  13   1.0000     -13.924369      -378.9013 
  14   1.0000     -13.924185      -378.8963 
  15   1.0000      -9.903197      -269.4797 
  16   1.0000      -9.898882      -269.3623 
  17   1.0000      -9.897717      -269.3306 
  18   1.0000      -9.897076      -269.3131 
  19   1.0000      -9.896368      -269.2939 
  20   1.0000      -9.872717      -268.6503 
  21   1.0000      -9.869497      -268.5627 
  22   1.0000      -9.862036      -268.3596 
  23   1.0000      -9.858969      -268.2762 
  24   1.0000      -9.830585      -267.5038 
  25   1.0000      -9.817850      -267.1573 
  26   1.0000      -9.814717      -267.0720 
  27   1.0000      -9.814707      -267.0718 
  28   1.0000      -9.811553      -266.9859 
  29   1.0000      -9.810950      -266.9695 
  30   1.0000      -9.806132      -266.8384 
  31   1.0000      -9.802478      -266.7390 
  32   1.0000      -9.802349      -266.7355 
  33   1.0000      -9.801359      -266.7085 
  34   1.0000      -9.800824      -266.6940 
  35   1.0000      -9.799559      -266.6596 
  36   1.0000      -9.799149      -266.6484 
  37   1.0000      -9.013107      -245.2591 
  38   1.0000      -6.838782      -186.0927 
  39   1.0000      -6.835840      -186.0127 
  40   1.0000      -6.835120      -185.9931 
  41   1.0000      -3.174004       -86.3690 
  42   1.0000      -2.000185       -54.4278 
  43   1.0000      -1.996811       -54.3360 
  44   1.0000      -1.971365       -53.6436 
  45   1.0000      -0.852434       -23.1959 
  46   1.0000      -0.835844       -22.7445 
  47   1.0000      -0.833753       -22.6876 
  48   1.0000      -0.830596       -22.6017 
  49   1.0000      -0.826605       -22.4931 
  50   1.0000      -0.724128       -19.7045 
  51   1.0000      -0.713666       -19.4198 
  52   1.0000      -0.705371       -19.1941 
  53   1.0000      -0.696469       -18.9519 
  54   1.0000      -0.641816       -17.4647 
  55   1.0000      -0.611142       -16.6300 
  56   1.0000      -0.604173       -16.4404 
  57   1.0000      -0.592869       -16.1328 
  58   1.0000      -0.586035       -15.9468 
  59   1.0000      -0.574804       -15.6412 
  60   1.0000      -0.556947       -15.1553 
  61   1.0000      -0.529113       -14.3979 
  62   1.0000      -0.526133       -14.3168 
  63   1.0000      -0.521826       -14.1996 
  64   1.0000      -0.517772       -14.0893 
  65   1.0000      -0.516644       -14.0586 
  66   1.0000      -0.501476       -13.6459 
  67   1.0000      -0.478662       -13.0251 
  68   1.0000      -0.468701       -12.7540 
  69   1.0000      -0.449112       -12.2210 
  70   1.0000      -0.434837       -11.8325 
  71   1.0000      -0.431752       -11.7486 
  72   1.0000      -0.405023       -11.0212 
  73   1.0000      -0.381277       -10.3751 
  74   1.0000      -0.362549        -9.8655 
  75   1.0000      -0.358891        -9.7659 
  76   1.0000      -0.353306        -9.6140 
  77   1.0000      -0.344880        -9.3847 
  78   1.0000      -0.330974        -9.0063 
  79   1.0000      -0.325292        -8.8517 
  80   1.0000      -0.319210        -8.6861 
  81   1.0000      -0.315546        -8.5864 
  82   1.0000      -0.313485        -8.5304 
[...]
      py      :     0.001732
      dz2     :    -0.000030  d :     0.000227
      dxz     :     0.000007
      dyz     :     0.000039
      dx2y2   :     0.000048
      dxy     :     0.000163
 28 C s       :     0.000433  s :     0.000433
      pz      :     0.003929  p :     0.004940
      px      :     0.000725
      py      :     0.000285
      dz2     :     0.000012  d :     0.000124
      dxz     :     0.000096
      dyz     :    -0.000004
      dx2y2   :     0.000007
      dxy     :     0.000013
 29 C s       :     0.000510  s :     0.000510
      pz      :     0.001688  p :     0.002833
      px      :     0.001071
      py      :     0.000074
      dz2     :     0.000013  d :     0.000086
      dxz     :     0.000085
      dyz     :    -0.000036
      dx2y2   :     0.000028
      dxy     :    -0.000004
 30 C s       :    -0.000005  s :    -0.000005
      pz      :     0.000157  p :     0.000283
      px      :     0.000153
      py      :    -0.000027
      dz2     :     0.000025  d :     0.000068
      dxz     :     0.000000
      dyz     :     0.000006
      dx2y2   :     0.000034
      dxy     :     0.000003
 31 C s       :    -0.000017  s :    -0.000017
      pz      :     0.000058  p :     0.000268
      px      :     0.000414
      py      :    -0.000204
      dz2     :     0.000023  d :     0.000057
      dxz     :     0.000046
      dyz     :    -0.000006
      dx2y2   :     0.000001
      dxy     :    -0.000007
 32 C s       :     0.000081  s :     0.000081
      pz      :     0.000133  p :     0.000495
      px      :     0.000090
      py      :     0.000272
      dz2     :     0.000002  d :     0.000007
      dxz     :     0.000005
      dyz     :     0.000002
      dx2y2   :    -0.000001
      dxy     :    -0.000001
 33 H s       :     0.000587  s :     0.000587
      pz      :     0.000025  p :     0.000048
      px      :    -0.000013
      py      :     0.000037
 34 H s       :     0.000038  s :     0.000038
      pz      :     0.000036  p :     0.000044
      px      :     0.000005
      py      :     0.000003
 35 H s       :    -0.000090  s :    -0.000090
      pz      :     0.000031  p :     0.000060
      px      :     0.000038
      py      :    -0.000010
 36 H s       :    -0.000122  s :    -0.000122
      pz      :     0.000009  p :     0.000138
      px      :     0.000055
      py      :     0.000074
 37 H s       :     0.001603  s :     0.001603
      pz      :     0.000051  p :     0.000173
      px      :     0.000028
      py      :     0.000094
 38 H s       :    -0.000123  s :    -0.000123
      pz      :     0.000153  p :     0.000160
      px      :     0.000014
      py      :    -0.000008
 39 H s       :     0.001288  s :     0.001288
      pz      :     0.000041  p :     0.000068
      px      :     0.000025
      py      :     0.000001
 40 H s       :    -0.000097  s :    -0.000097
      pz      :     0.000001  p :     0.000002
      px      :    -0.000022
      py      :     0.000023
 41 H s       :    -0.000027  s :    -0.000027
      pz      :     0.000041  p :     0.000055
      px      :    -0.000002
      py      :     0.000017
 42 H s       :    -0.000069  s :    -0.000069
      pz      :     0.000032  p :     0.000096
      px      :     0.000044
      py      :     0.000019
 43 H s       :     0.001257  s :     0.001257
      pz      :     0.000014  p :     0.000118
      px      :     0.000026
      py      :     0.000078
 44 H s       :     0.000270  s :     0.000270
      pz      :     0.000100  p :     0.000136
      px      :    -0.000005
      py      :     0.000041
 45 H s       :     0.001480  s :     0.001480
      pz      :     0.000029  p :     0.000142
      px      :    -0.000007
      py      :     0.000119
 46 H s       :    -0.000199  s :    -0.000199
      pz      :     0.000066  p :     0.000121
      px      :     0.000031
      py      :     0.000023
 47 H s       :     0.000230  s :     0.000230
      pz      :     0.000190  p :     0.000201
      px      :     0.000009
      py      :     0.000003
 48 H s       :    -0.000111  s :    -0.000111
      pz      :    -0.000023  p :    -0.000076
      px      :    -0.000099
      py      :     0.000045
 49 H s       :     0.001416  s :     0.001416
      pz      :    -0.000009  p :    -0.000015
      px      :     0.000022
      py      :    -0.000028
 50 H s       :     0.000110  s :     0.000110
      pz      :     0.000007  p :    -0.000012
      px      :    -0.000014
      py      :    -0.000005
 51 H s       :     0.000102  s :     0.000102
      pz      :     0.000002  p :     0.000059
      px      :     0.000041
      py      :     0.000016
 52 H s       :    -0.000009  s :    -0.000009
      pz      :     0.000072  p :     0.000088
      px      :     0.000018
      py      :    -0.000002
 53 H s       :     0.001562  s :     0.001562
      pz      :    -0.000022  p :     0.000063
      px      :    -0.000028
      py      :     0.000114
 54 H s       :     0.000222  s :     0.000222
      pz      :     0.000140  p :     0.000171
      px      :     0.000029
      py      :     0.000002
 55 H s       :     0.000541  s :     0.000541
      pz      :     0.000120  p :     0.000181
      px      :     0.000060
      py      :     0.000001
 56 H s       :    -0.000349  s :    -0.000349
      pz      :     0.000100  p :     0.000152
      px      :     0.000022
      py      :     0.000029
 57 H s       :     0.000135  s :     0.000135
      pz      :     0.000104  p :     0.000170
      px      :     0.000057
      py      :     0.000009
 58 H s       :     0.000439  s :     0.000439
      pz      :     0.000044  p :     0.000055
      px      :     0.000003
      py      :     0.000008
 59 H s       :     0.000187  s :     0.000187
      pz      :    -0.000002  p :     0.000006
      px      :     0.000009
      py      :    -0.000001
 60 H s       :     0.000142  s :     0.000142
      pz      :    -0.000010  p :    -0.000008
      px      :     0.000004
      py      :    -0.000002
 61 H s       :     0.000087  s :     0.000087
      pz      :     0.000009  p :     0.000009
      px      :    -0.000003
      py      :     0.000003
 62 H s       :    -0.000108  s :    -0.000108
      pz      :    -0.000006  p :     0.000047
      px      :     0.000019
      py      :     0.000035
 63 H s       :     0.000003  s :     0.000003
      pz      :     0.000000  p :     0.000058
      px      :     0.000012
      py      :     0.000046
 64 H s       :     0.000042  s :     0.000042
      pz      :     0.000001  p :     0.000012
      px      :     0.000002
      py      :     0.000010
 65 H s       :     0.000182  s :     0.000182
      pz      :     0.000006  p :     0.000054
      px      :     0.000011
      py      :     0.000037
 66 H s       :     0.000156  s :     0.000156
      pz      :     0.000004  p :     0.000043
      px      :     0.000003
      py      :     0.000036


                      *****************************
                      * MAYER POPULATION ANALYSIS *
                      *****************************

  NA   - Mulliken gross atomic population
  ZA   - Total nuclear charge
  QA   - Mulliken gross atomic charge
  VA   - Mayer's total valence
  BVA  - Mayer's bonded valence
  FA   - Mayer's free valence

  ATOM       NA         ZA         QA         VA         BVA        FA
  0 Fe    25.3820    26.0000     0.6180     6.9191     4.7636     2.1555
  1 Cl    17.3306    17.0000    -0.3306     1.1737     1.1386     0.0351
  2 N      7.3030     7.0000    -0.3030     3.1514     3.1419     0.0096
  3 N      7.3036     7.0000    -0.3036     3.1541     3.1468     0.0072
  4 N      7.2963     7.0000    -0.2963     3.1642     3.1571     0.0071
  5 N      7.3078     7.0000    -0.3078     3.1370     3.1288     0.0082
  6 O      8.2496     8.0000    -0.2496     2.3090     2.3071     0.0019
  7 O      8.1897     8.0000    -0.1897     2.3211     2.3211     0.0000
  8 O      8.2524     8.0000    -0.2524     2.3094     2.3066     0.0028
  9 O      8.2459     8.0000    -0.2459     2.2986     2.2960     0.0026
 10 O      8.2440     8.0000    -0.2440     2.3060     2.3030     0.0029
 11 C      6.1273     6.0000    -0.1273     4.1321     4.1320     0.0001
 12 C      5.8551     6.0000     0.1449     4.1251     4.1250     0.0001
 13 C      6.1463     6.0000    -0.1463     4.1423     4.1423     0.0000
 14 C      5.9403     6.0000     0.0597     4.0074     4.0073     0.0000
 15 C      6.1497     6.0000    -0.1497     4.1436     4.1435     0.0000
 16 C      5.8523     6.0000     0.1477     4.1317     4.1316     0.0001
 17 C      6.1308     6.0000    -0.1308     4.1243     4.1242     0.0001
 18 C      5.8309     6.0000     0.1691     4.1158     4.1157     0.0001
 19 C      6.2769     6.0000    -0.2769     3.8851     3.8850     0.0001
 20 C      5.8430     6.0000     0.1570     4.1709     4.1708     0.0001
 21 C      5.9289     6.0000     0.0711     3.9089     3.9089     0.0000
 22 C      5.9212     6.0000     0.0788     3.8901     3.8901     0.0000
 23 C      5.9321     6.0000     0.0679     3.9053     3.9053     0.0000
 24 C      5.9220     6.0000     0.0780     3.9276     3.9276     0.0000
 25 C      5.9155     6.0000     0.0845     3.9121     3.9120     0.0000
 26 C      5.9165     6.0000     0.0835     3.9174     3.9174     0.0000
 27 C      5.9440     6.0000     0.0560     3.9145     3.9144     0.0000
 28 C      5.9337     6.0000     0.0663     3.9003     3.9003     0.0000
 29 C      5.9733     6.0000     0.0267     4.0608     4.0608     0.0000
 30 C      6.0174     6.0000    -0.0174     4.0110     4.0110     0.0000
 31 C      5.9223     6.0000     0.0777     4.1031     4.1031     0.0000
 32 C      6.0304     6.0000    -0.0304     4.0066     4.0066     0.0000
 33 H      0.9850     1.0000     0.0150     1.0243     1.0243     0.0000
 34 H      0.9711     1.0000     0.0289     1.0327     1.0327     0.0000
 35 H      0.9945     1.0000     0.0055     0.9982     0.9982     0.0000
 36 H      0.9708     1.0000     0.0292     1.0335     1.0335     0.0000
 37 H      0.9936     1.0000     0.0064     1.0128     1.0128     0.0000
 38 H      0.9803     1.0000     0.0197     1.0270     1.0270     0.0000
 39 H      0.9913     1.0000     0.0087     0.9994     0.9994     0.0000
 40 H      0.9590     1.0000     0.0410     1.0401     1.0401     0.0000
 41 H      0.9790     1.0000     0.0210     1.0092     1.0092     0.0000
 42 H      0.9747     1.0000     0.0253     1.0284     1.0284     0.0000
 43 H      0.9860     1.0000     0.0140     1.0186     1.0186     0.0000
 44 H      0.9786     1.0000     0.0214     1.0215     1.0215     0.0000
 45 H      0.9913     1.0000     0.0087     1.0212     1.0212     0.0000
 46 H      0.9778     1.0000     0.0222     1.0206     1.0206     0.0000
 47 H      0.9799     1.0000     0.0201     1.0487     1.0487     0.0000
 48 H      0.9581     1.0000     0.0419     1.0370     1.0370     0.0000
 49 H      0.9889     1.0000     0.0111     1.0063     1.0063     0.0000
 50 H      0.9908     1.0000     0.0092     1.0088     1.0088     0.0000
 51 H      0.9673     1.0000     0.0327     1.0403     1.0403     0.0000
 52 H      0.9824     1.0000     0.0176     0.9998     0.9998     0.0000
 53 H      0.9855     1.0000     0.0145     1.0236     1.0236     0.0000
 54 H      0.9638     1.0000     0.0362     1.0277     1.0277     0.0000
 55 H      0.9866     1.0000     0.0134     1.0105     1.0105     0.0000
 56 H      0.9847     1.0000     0.0153     1.0064     1.0064     0.0000
 57 H      0.9751     1.0000     0.0249     1.0642     1.0642     0.0000
 58 H      0.9972     1.0000     0.0028     0.9935     0.9935     0.0000
 59 H      0.9843     1.0000     0.0157     0.9838     0.9838     0.0000
 60 H      0.9685     1.0000     0.0315     1.0014     1.0014     0.0000
 61 H      0.9806     1.0000     0.0194     0.9938     0.9938     0.0000
 62 H      1.0051     1.0000    -0.0051     1.0069     1.0069     0.0000
 63 H      0.9960     1.0000     0.0040     1.0113     1.0113     0.0000
 64 H      1.0068     1.0000    -0.0068     0.9839     0.9839     0.0000
 65 H      0.9727     1.0000     0.0273     1.0150     1.0150     0.0000
 66 H      0.9777     1.0000     0.0223     1.0123     1.0123     0.0000

  Mayer bond orders larger than 0.1
B(  0-Fe,  1-Cl) :   0.8198 B(  0-Fe,  2-N ) :   0.8052 B(  0-Fe,  3-N ) :   0.7971 
B(  0-Fe,  4-N ) :   0.7804 B(  0-Fe,  5-N ) :   0.8022 B(  0-Fe,  8-O ) :   0.1013 
B(  2-N , 11-C ) :   0.9187 B(  2-N , 20-C ) :   1.2316 B(  3-N , 12-C ) :   1.2090 
B(  3-N , 13-C ) :   0.9437 B(  4-N , 15-C ) :   0.9499 B(  4-N , 16-C ) :   1.2250 
B(  5-N , 17-C ) :   0.9245 B(  5-N , 18-C ) :   1.2233 B(  6-O , 12-C ) :   1.8969 
B(  7-O , 14-C ) :   2.1218 B(  8-O , 16-C ) :   1.8922 B(  9-O , 18-C ) :   1.8826 
B( 10-O , 20-C ) :   1.8933 B( 11-C , 12-C ) :   0.8910 B( 11-C , 21-C ) :   1.0595 
B( 11-C , 22-C ) :   1.0358 B( 13-C , 14-C ) :   0.8745 B( 13-C , 23-C ) :   1.0422 
B( 13-C , 24-C ) :   1.0656 B( 14-C , 15-C ) :   0.8897 B( 15-C , 25-C ) :   1.0551 
B( 15-C , 26-C ) :   1.0374 B( 16-C , 17-C ) :   0.8907 B( 17-C , 27-C ) :   1.0573 
B( 17-C , 28-C ) :   1.0351 B( 18-C , 19-C ) :   0.8796 B( 19-C , 20-C ) :   0.8895 
B( 19-C , 29-C ) :   1.0169 B( 19-C , 31-C ) :   1.0605 B( 21-C , 33-H ) :   0.9397 
B( 21-C , 34-H ) :   0.9419 B( 21-C , 35-H ) :   0.9495 B( 22-C , 36-H ) :   0.9451 
B( 22-C , 37-H ) :   0.9469 B( 22-C , 38-H ) :   0.9432 B( 23-C , 39-H ) :   0.9432 
B( 23-C , 40-H ) :   0.9328 B( 23-C , 41-H ) :   0.9420 B( 24-C , 42-H ) :   0.9370 
B( 24-C , 43-H ) :   0.9391 B( 24-C , 44-H ) :   0.9478 B( 25-C , 45-H ) :   0.9415 
B( 25-C , 46-H ) :   0.9403 B( 25-C , 47-H ) :   0.9406 B( 26-C , 48-H ) :   0.9351 
B( 26-C , 49-H ) :   0.9411 B( 26-C , 50-H ) :   0.9413 B( 27-C , 51-H ) :   0.9418 
B( 27-C , 52-H ) :   0.9500 B( 27-C , 53-H ) :   0.9397 B( 28-C , 54-H ) :   0.9477 
B( 28-C , 55-H ) :   0.9496 B( 28-C , 56-H ) :   0.9482 B( 29-C , 30-C ) :   1.1219 
B( 29-C , 57-H ) :   0.9042 B( 29-C , 58-H ) :   0.9228 B( 30-C , 59-H ) :   0.9547 
B( 30-C , 60-H ) :   0.9544 B( 30-C , 61-H ) :   0.9568 B( 31-C , 32-C ) :   1.1177 
B( 31-C , 62-H ) :   0.9141 B( 31-C , 63-H ) :   0.9087 B( 32-C , 64-H ) :   0.9559 
B( 32-C , 65-H ) :   0.9587 B( 32-C , 66-H ) :   0.9565 

-------
TIMINGS
-------

Total SCF time: 0 days 0 hours 10 min 23 sec 

Total time                  ....     623.783 sec
Sum of individual times     ....     621.614 sec  ( 99.7%)

Fock matrix formation       ....     584.621 sec  ( 93.7%)
  Split-RI-J                ....     394.975 sec  ( 67.6% of F)
  XC integration            ....     188.206 sec  ( 32.2% of F)
    Basis function eval.    ....      36.728 sec  ( 19.5% of XC)
    Density eval.           ....      61.921 sec  ( 32.9% of XC)
    XC-Functional eval.     ....       4.911 sec  (  2.6% of XC)
    XC-Potential eval.      ....      82.345 sec  ( 43.8% of XC)
Diagonalization             ....      11.974 sec  (  1.9%)
Density matrix formation    ....       2.286 sec  (  0.4%)
Population analysis         ....       0.188 sec  (  0.0%)
Initial guess               ....       5.649 sec  (  0.9%)
Orbital Transformation      ....       0.000 sec  (  0.0%)
Orbital Orthonormalization  ....       0.000 sec  (  0.0%)
DIIS solution               ....       4.919 sec  (  0.8%)
Grid generation             ....      11.978 sec  (  1.9%)

-------------------------   --------------------
FINAL SINGLE POINT ENERGY     -3177.029850593918
-------------------------   --------------------


                            ***************************************
                            *     ORCA property calculations      *
                            ***************************************

                                    ---------------------
                                    Active property flags
                                    ---------------------
   (+) Dipole Moment
   (+) Nuclear properties (Hyperfine,Quadrupole)


------------------------------------------------------------------------------
                       ORCA ELECTRIC PROPERTIES CALCULATION
------------------------------------------------------------------------------

Dipole Moment Calculation                       ... on
Quadrupole Moment Calculation                   ... off
Polarizability Calculation                      ... off
GBWName                                         ... moess.gbw
Electron density file                           ... moess.scfp.tmp
The origin for moment calculation is the CENTER OF MASS  = ( 0.008837,  0.006489  0.065062)

-------------
DIPOLE MOMENT
-------------
                                X             Y             Z
Electronic contribution:    -11.58598      -1.61435       9.60636
Nuclear contribution   :     11.52735       1.77023     -10.16634
                        -----------------------------------------
Total Dipole Moment    :     -0.05862       0.15588      -0.55998
                        -----------------------------------------
Magnitude (a.u.)       :      0.58422
Magnitude (Debye)      :      1.48497



--------------------
Rotational spectrum 
--------------------
 
Rotational constants in cm-1:     0.005861     0.004061     0.003114 
Rotational constants in MHz :   175.710073   121.731573    93.350177 

 Dipole components along the rotational axes: 
x,y,z [a.u.] :     0.066912     0.156789    -0.558794 
x,y,z [Debye]:     0.170078     0.398526    -1.420343 

 
------------------------------------------------------------------------------
                                ORCA EPR/NMR CALCULATION
------------------------------------------------------------------------------

GBWName                      ... moess.gbw
Electron density file        ... moess.scfp.tmp
Spin density file            ... moess.scfr.tmp
Multiplicity                 ... 5
g-tensor                     ... 0
NMR chemical shifts          ... 0
Number of nuclei for epr/nmr ... 1
   Nucleus:   0Fe
       Hyperfine : Isotope=   57 I=   0.500 P=  17.280
       Quadrupole: Isotope=   57 I=   0.500 Q=   0.160
       Spin-Orbit: Zeff=  13.910
       Ncuelar Spin-Spin: Gn=   0.000
       rho(0)=Y f(grad)=Y a(iso)=N a(dip)=N a(orb)=N sigma(nmr)=N spin-spin(nmr)=all-N,DSO-N,PSO-N,FC-N,SD-N

-----------------------------------------
ELECTRIC AND MAGNETIC HYPERFINE STRUCTURE
-----------------------------------------

 -----------------------------------------------------------
 Nucleus   0Fe: A:ISTP=   57 I=  0.5 P= 17.2798 MHz/au**3
                Q:ISTP=   57 I=  0.5 Q=  0.1600 barn     
 -----------------------------------------------------------
 Raw EFG matrix (all values in a.u.**-3):
             0.3795      -0.0057       0.0802
            -0.0057      -0.2486      -0.0515
             0.0802      -0.0515      -0.1309

 V(El)       0.2832      -0.4073       0.1241
 V(Nuc)     -0.4065       0.1385       0.2680
         ----------   ----------   ----------
 V(Tot)     -0.1233      -0.2688       0.3921 
 Orientation: 
  X      -0.1505024   -0.0374661   -0.9878994
  Y      -0.3697293    0.9289000    0.0210982
  Z       0.9168693    0.3684307   -0.1536540

Note: Tensor is right-handed

Moessbauer quadrupole splitting parameter (proper coordinate system)
 e**2qQ  =   14.741 MHz =    1.271 mm/s
 eta     =  0.371
 Delta-EQ=(1/2{e**2qQ}*sqrt(1+1/3*eta**2) =    7.538 MHz =    0.650 mm/s
 RHO(0)=  11191.108957931 a.u.**-3


------------------------------------------------------------------------------- 

Timings for individual modules:

Sum of individual times         ...      625.114 sec (=  10.419 min)
GTO integral calculation        ...        0.798 sec (=   0.013 min)   0.1 %
SCF iterations                  ...      623.813 sec (=  10.397 min)  99.8 %
EPR/NMR calculation             ...        0.504 sec (=   0.008 min)   0.1 %
                             ****ORCA TERMINATED NORMALLY****
TOTAL RUN TIME: 0 days 0 hours 10 minutes 25 seconds 424 msec
