
                                 *****************
                                 * O   R   C   A *
                                 *****************

           --- An Ab Initio, DFT and Semiempirical electronic structure package ---

                  #######################################################
                  #                        -***-                        #
                  #          Department of theory and spectroscopy      #
                  #               Directorship: Frank Neese             #
                  #        Max Planck Institute fuer Kohlenforschung    #
                  #                Kaiser Wilhelm Platz 1               #
                  #                 D-45470 Muelheim/Ruhr               #
                  #                      Germany                        #
                  #                                                     #
                  #                  All rights reserved                #
                  #                        -***-                        #
                  #######################################################


                         Program Version 4.1.2  - RELEASE  -


 With contributions from (in alphabetic order):
   Daniel Aravena         : Magnetic Properties
   Michael Atanasov       : Ab Initio Ligand Field Theory
   Alexander A. Auer      : GIAO ZORA
   Ute Becker             : Parallelization
   Giovanni Bistoni       : ED, Open-shell LED
   Martin Brehm           : Molecular dynamics
   Dmytro Bykov           : SCF Hessian
   Vijay G. Chilkuri      : MRCI spin determinant printing
   Dipayan Datta          : RHF DLPNO-CCSD density
   Achintya Kumar Dutta   : EOM-CC, STEOM-CC
   Dmitry Ganyushin       : Spin-Orbit,Spin-Spin,Magnetic field MRCI
   Miquel Garcia          : C-PCM Hessian
   Yang Guo               : DLPNO-NEVPT2, CIM, IAO-localization
   Andreas Hansen         : Spin unrestricted coupled pair/coupled cluster methods
   Benjamin Helmich-Paris : CASSCF linear response (MC-RPA)
   Lee Huntington         : MR-EOM, pCC
   Robert Izsak           : Overlap fitted RIJCOSX, COSX-SCS-MP3, EOM
   Christian Kollmar      : KDIIS, OOCD, Brueckner-CCSD(T), CCSD density
   Simone Kossmann        : Meta GGA functionals, TD-DFT gradient, OOMP2, MP2 Hessian
   Martin Krupicka        : AUTO-CI
   Lucas Lang             : DCDCAS
   Dagmar Lenk            : GEPOL surface, SMD
   Dimitrios Liakos       : Extrapolation schemes; parallel MDCI
   Dimitrios Manganas     : ROCIS; embedding schemes
   Dimitrios Pantazis     : SARC Basis sets
   Taras Petrenko         : DFT Hessian,TD-DFT gradient, ASA, ECA, R-Raman, ABS, FL, XAS/XES, NRVS
   Peter Pinski           : DLPNO-MP2, DLPNO-MP2 Gradient
   Christoph Reimann      : Effective Core Potentials
   Marius Retegan         : Local ZFS, SOC
   Christoph Riplinger    : Optimizer, TS searches, QM/MM, DLPNO-CCSD(T), (RO)-DLPNO pert. Triples
   Tobias Risthaus        : Range-separated hybrids, TD-DFT gradient, RPA, STAB
   Michael Roemelt        : Restricted open shell CIS
   Masaaki Saitow         : Open-shell DLPNO
   Barbara Sandhoefer     : DKH picture change effects
   Avijit Sen             : IP-ROCIS
   Kantharuban Sivalingam : CASSCF convergence, NEVPT2, FIC-MRCI
   Bernardo de Souza      : ESD, SOC TD-DFT
   Georgi Stoychev        : AutoAux, RI-MP2 NMR
   Willem Van den Heuvel  : Paramagnetic NMR
   Boris Wezisla          : Elementary symmetry handling
   Frank Wennmohs         : Technical directorship


 We gratefully acknowledge several colleagues who have allowed us to
 interface, adapt or use parts of their codes:
   Stefan Grimme, W. Hujo, H. Kruse,             : VdW corrections, initial TS optimization,
                  C. Bannwarth                     DFT functionals, gCP, sTDA/sTD-DF
   Ed Valeev                                     : LibInt (2-el integral package), F12 methods
   Garnet Chan, S. Sharma, J. Yang, R. Olivares  : DMRG
   Ulf Ekstrom                                   : XCFun DFT Library
   Mihaly Kallay                                 : mrcc  (arbitrary order and MRCC methods)
   Andreas Klamt, Michael Diedenhofen            : otool_cosmo (COSMO solvation model)
   Jiri Pittner, Ondrej Demel                    : Mk-CCSD
   Frank Weinhold                                : gennbo (NPA and NBO analysis)
   Christopher J. Cramer and Donald G. Truhlar   : smd solvation model
   Lars Goerigk                                  : TD-DFT with DH, B97 family of functionals
   V. Asgeirsson, H. Jonsson                     : NEB implementation
   FAccTs GmbH                                   : IRC, NEB, NEB-TS, Multilevel


 Your calculation uses the libint2 library for the computation of 2-el integrals
 For citations please refer to: http://libint.valeyev.net

 This ORCA versions uses:
   CBLAS   interface :  Fast vector & matrix operations
   LAPACKE interface :  Fast linear algebra routines
   SCALAPACK package :  Parallel linear algebra routines




***************************************
The coordinates will be read from file: geom.xyz
***************************************


----- Orbital basis set information -----
Your calculation utilizes the basis: def2-SVP
   F. Weigend and R. Ahlrichs, Phys. Chem. Chem. Phys. 7, 3297 (2005).

----- AuxJ basis set information -----
Your calculation utilizes the auxiliary basis: def2/J
   F. Weigend, Phys. Chem. Chem. Phys. 8, 1057 (2006).

================================================================================
                                        WARNINGS
                       Please study these warnings very carefully!
================================================================================


WARNING: your system is open-shell and RHF/RKS was chosen
  ===> : WILL SWITCH to UHF/UKS


INFO   : the flag for use of LIBINT has been found!

================================================================================
                                       INPUT FILE
================================================================================
NAME = moess.inp
|  1> ! bp86 def2-svp
|  2> 
|  3> * xyzfile  -3 2 geom.xyz
|  4> 
|  5> %eprnmr
|  6> nuclei = all Fe {fgrad, rho}
|  7> end
|  8> 
|  9> 
| 10>                          ****END OF INPUT****
================================================================================

                       ****************************
                       * Single Point Calculation *
                       ****************************

---------------------------------
CARTESIAN COORDINATES (ANGSTROEM)
---------------------------------
  Fe    -0.000018   -0.000019    0.000039
  C      1.942716   -0.035671    0.036581
  C     -1.942739    0.036085   -0.036470
  C     -0.035924    1.942941    0.036657
  C      0.035719   -1.942959   -0.036888
  C      0.035898    0.036368    1.942767
  C     -0.035628   -0.036600   -1.942726
  N      3.116883   -0.042390    0.042632
  N     -3.116896    0.042905   -0.042321
  N     -0.042631    3.117085    0.042625
  N      0.042282   -3.117112   -0.042932
  N      0.043454    0.043125    3.116934
  N     -0.043116   -0.043759   -3.116897

----------------------------
CARTESIAN COORDINATES (A.U.)
----------------------------
  NO LB      ZA    FRAG     MASS         X           Y           Z
   0 Fe   26.0000    0    55.850   -0.000034   -0.000036    0.000074
   1 C     6.0000    0    12.011    3.671201   -0.067408    0.069128
   2 C     6.0000    0    12.011   -3.671245    0.068191   -0.068918
   3 C     6.0000    0    12.011   -0.067887    3.671626    0.069272
   4 C     6.0000    0    12.011    0.067499   -3.671660   -0.069708
   5 C     6.0000    0    12.011    0.067837    0.068726    3.671298
   6 C     6.0000    0    12.011   -0.067327   -0.069164   -3.671220
   7 N     7.0000    0    14.007    5.890055   -0.080105    0.080563
   8 N     7.0000    0    14.007   -5.890080    0.081079   -0.079975
   9 N     7.0000    0    14.007   -0.080561    5.890437    0.080550
  10 N     7.0000    0    14.007    0.079901   -5.890488   -0.081130
  11 N     7.0000    0    14.007    0.082116    0.081494    5.890152
  12 N     7.0000    0    14.007   -0.081477   -0.082693   -5.890082

--------------------------------
INTERNAL COORDINATES (ANGSTROEM)
--------------------------------
 Fe     0   0   0     0.000000000000     0.00000000     0.00000000
 C      1   0   0     1.943404687044     0.00000000     0.00000000
 C      1   2   0     1.943399415905   179.98663398     0.00000000
 C      1   2   3     1.943636715119    92.08899304     3.04257748
 C      1   2   4     1.943619453519    87.91615414   179.99097251
 C      1   2   5     1.943400641867    87.88371626    92.22159017
 C      1   2   6     1.943435640016    92.10713673   180.00553162
 N      2   1   3     1.174201815469   178.93459892   308.60949241
 N      3   1   6     1.174191384422   178.92244343   316.12435457
 N      4   1   2     1.174178322747   178.92468404    48.25783676
 N      5   1   2     1.174186897523   178.91931419   131.62671209
 N      6   1   2     1.174210753687   178.98568317   228.19432135
 N      7   1   2     1.174216700046   178.99975802   312.10790457

---------------------------
INTERNAL COORDINATES (A.U.)
---------------------------
 Fe     0   0   0     0.000000000000     0.00000000     0.00000000
 C      1   0   0     3.672502625892     0.00000000     0.00000000
 C      1   2   0     3.672492664882   179.98663398     0.00000000
 C      1   2   3     3.672941095410    92.08899304     3.04257748
 C      1   2   4     3.672908475713    87.91615414   179.99097251
 C      1   2   5     3.672494981615    87.88371626    92.22159017
 C      1   2   6     3.672561118533    92.10713673   180.00553162
 N      2   1   3     2.218919857190   178.93459892   308.60949241
 N      3   1   6     2.218900145367   178.92244343   316.12435457
 N      4   1   2     2.218875462379   178.92468404    48.25783676
 N      5   1   2     2.218891666357   178.91931419   131.62671209
 N      6   1   2     2.218936747974   178.98568317   228.19432135
 N      7   1   2     2.218947984963   178.99975802   312.10790457

---------------------
BASIS SET INFORMATION
---------------------
There are 3 groups of distinct atoms

 Group   1 Type Fe  : 14s9p5d1f contracted to 5s3p2d1f pattern {63311/531/41/1}
 Group   2 Type C   : 7s4p1d contracted to 3s2p1d pattern {511/31/1}
 Group   3 Type N   : 7s4p1d contracted to 3s2p1d pattern {511/31/1}

Atom   0Fe   basis set group =>   1
Atom   1C    basis set group =>   2
Atom   2C    basis set group =>   2
Atom   3C    basis set group =>   2
Atom   4C    basis set group =>   2
Atom   5C    basis set group =>   2
Atom   6C    basis set group =>   2
Atom   7N    basis set group =>   3
Atom   8N    basis set group =>   3
Atom   9N    basis set group =>   3
Atom  10N    basis set group =>   3
Atom  11N    basis set group =>   3
Atom  12N    basis set group =>   3
-------------------------------
AUXILIARY BASIS SET INFORMATION
-------------------------------
There are 3 groups of distinct atoms

 Group   1 Type Fe  : 19s5p5d3f3g contracted to 8s5p5d2f3g pattern {121111111/11111/11111/21/111}
 Group   2 Type C   : 12s5p4d2f1g contracted to 6s4p3d1f1g pattern {711111/2111/211/2/1}
 Group   3 Type N   : 12s5p4d2f1g contracted to 6s4p3d1f1g pattern {711111/2111/211/2/1}

Atom   0Fe   basis set group =>   1
Atom   1C    basis set group =>   2
Atom   2C    basis set group =>   2
Atom   3C    basis set group =>   2
Atom   4C    basis set group =>   2
Atom   5C    basis set group =>   2
Atom   6C    basis set group =>   2
Atom   7N    basis set group =>   3
Atom   8N    basis set group =>   3
Atom   9N    basis set group =>   3
Atom  10N    basis set group =>   3
Atom  11N    basis set group =>   3
Atom  12N    basis set group =>   3
------------------------------------------------------------------------------
                           ORCA GTO INTEGRAL CALCULATION
                           -- RI-GTO INTEGRALS CHOSEN --
------------------------------------------------------------------------------

                         BASIS SET STATISTICS AND STARTUP INFO

Gaussian basis set:
 # of primitive gaussian shells          ...  173
 # of primitive gaussian functions       ...  361
 # of contracted shells                  ...   83
 # of contracted basis functions         ...  199
 Highest angular momentum                ...    3
 Maximum contraction depth               ...    6
Auxiliary gaussian basis set:
 # of primitive gaussian shells          ...  323
 # of primitive gaussian functions       ...  947
 # of contracted shells                  ...  203
 # of contracted aux-basis functions     ...  677
 Highest angular momentum                ...    4
 Maximum contraction depth               ...   12
Ratio of auxiliary to basis functions    ...  3.40
Integral package used                  ... LIBINT
 One Electron integrals                  ... done
 Ordering auxiliary basis shells         ... done
 Integral threshhold             Thresh  ...  1.000e-10
 Primitive cut-off               TCut    ...  1.000e-11
 Pre-screening matrix                    ... done
 Shell pair data                         ... 
 Ordering of the shell pairs             ... done (   0.001 sec) 3113 of 3486 pairs
 Determination of significant pairs      ... done (   0.000 sec)
 Creation of shell pair data             ... done (   0.000 sec)
 Storage of shell pair data              ... done (   0.001 sec)
 Shell pair data done in (   0.002 sec)
 Computing two index integrals           ... done
 Cholesky decomposition of the V-matrix  ... done


Timings:
 Total evaluation time                   ...   0.180 sec (  0.003 min)
 One electron matrix time                ...   0.017 sec (  0.000 min) =  9.5%
 Schwartz matrix evaluation time         ...   0.127 sec (  0.002 min) = 70.4%
 Two index repulsion integral time       ...   0.009 sec (  0.000 min) =  4.9%
 Cholesky decomposition of V             ...   0.006 sec (  0.000 min) =  3.6%
 Three index repulsion integral time     ...   0.000 sec (  0.000 min) =  0.0%

-------------------------------------------------------------------------------
                                 ORCA SCF
-------------------------------------------------------------------------------

------------
SCF SETTINGS
------------
Hamiltonian:
 Density Functional     Method          .... DFT(GTOs)
 Exchange Functional    Exchange        .... B88
   X-Alpha parameter    XAlpha          ....  0.666667
   Becke's b parameter  XBeta           ....  0.004200
 Correlation Functional Correlation     .... P86
 LDA part of GGA corr.  LDAOpt          .... PW91-LDA
 Gradients option       PostSCFGGA      .... off
   Density functional embedding theory  .... OFF
 RI-approximation to the Coulomb term is turned on
   Number of auxiliary basis functions  .... 677


General Settings:
 Integral files         IntName         .... moess
 Hartree-Fock type      HFTyp           .... UHF
 Total Charge           Charge          ....   -3
 Multiplicity           Mult            ....    2
 Number of Electrons    NEL             ....  107
 Basis Dimension        Dim             ....  199
 Nuclear Repulsion      ENuc            ....    906.3639403145 Eh

Convergence Acceleration:
 DIIS                   CNVDIIS         .... on
   Start iteration      DIISMaxIt       ....    12
   Startup error        DIISStart       ....  0.200000
   # of expansion vecs  DIISMaxEq       ....     5
   Bias factor          DIISBfac        ....   1.050
   Max. coefficient     DIISMaxC        ....  10.000
 Newton-Raphson         CNVNR           .... off
 SOSCF                  CNVSOSCF        .... off
 Level Shifting         CNVShift        .... on
   Level shift para.    LevelShift      ....    0.2500
   Turn off err/grad.   ShiftErr        ....    0.0010
 Zerner damping         CNVZerner       .... off
 Static damping         CNVDamp         .... on
   Fraction old density DampFac         ....    0.7000
   Max. Damping (<1)    DampMax         ....    0.9800
   Min. Damping (>=0)   DampMin         ....    0.0000
   Turn off err/grad.   DampErr         ....    0.1000
 Fernandez-Rico         CNVRico         .... off

SCF Procedure:
 Maximum # iterations   MaxIter         ....   125
 SCF integral mode      SCFMode         .... Direct
   Integral package                     .... LIBINT
 Reset frequency        DirectResetFreq ....    20
 Integral Threshold     Thresh          ....  1.000e-10 Eh
 Primitive CutOff       TCut            ....  1.000e-11 Eh

Convergence Tolerance:
 Convergence Check Mode ConvCheckMode   .... Total+1el-Energy
 Convergence forced     ConvForced      .... 0
 Energy Change          TolE            ....  1.000e-06 Eh
 1-El. energy change                    ....  1.000e-03 Eh
 DIIS Error             TolErr          ....  1.000e-06


Diagonalization of the overlap matrix:
Smallest eigenvalue                        ... 1.129e-03
Time for diagonalization                   ...    0.004 sec
Threshold for overlap eigenvalues          ... 1.000e-08
Number of eigenvalues below threshold      ... 0
Time for construction of square roots      ...    0.002 sec
Total time needed                          ...    0.007 sec

-------------------
DFT GRID GENERATION
-------------------

General Integration Accuracy     IntAcc      ...  4.340
Radial Grid Type                 RadialGrid  ... Gauss-Chebyshev
Angular Grid (max. acc.)         AngularGrid ... Lebedev-110
Angular grid pruning method      GridPruning ... 3 (G Style)
Weight generation scheme         WeightScheme... Becke
Basis function cutoff            BFCut       ...    1.0000e-10
Integration weight cutoff        WCut        ...    1.0000e-14
Grids for H and He will be reduced by one unit

# of grid points (after initial pruning)     ...  23060 (   0.0 sec)
# of grid points (after weights+screening)   ...  21752 (   0.0 sec)
nearest neighbour list constructed           ...    0.0 sec
Grid point re-assignment to atoms done       ...    0.0 sec
Grid point division into batches done        ...    0.0 sec
Reduced shell lists constructed in    0.2 sec

Total number of grid points                  ...    21752
Total number of batches                      ...      347
Average number of points per batch           ...       62
Average number of grid points per atom       ...     1673
Average number of shells per batch           ...    48.44 (58.36%)
Average number of basis functions per batch  ...   115.10 (57.84%)
Average number of large shells per batch     ...    33.99 (70.18%)
Average number of large basis fcns per batch ...    78.53 (68.23%)
Maximum spatial batch extension              ...  25.60, 25.60, 24.60 au
Average spatial batch extension              ...   4.01,  3.98,  3.97 au

Time for grid setup =    0.236 sec

------------------------------
INITIAL GUESS: MODEL POTENTIAL
------------------------------
Loading Hartree-Fock densities                     ... done
Calculating cut-offs                               ... done
Setting up the integral package                    ... done
Initializing the effective Hamiltonian             ... done
Starting the Coulomb interaction                   ... done (   0.1 sec)
Reading the grid                                   ... done
Mapping shells                                     ... done
Starting the XC term evaluation                    ... done (   0.2 sec)
  promolecular density results
     # of electrons  =    104.015612315
     EX              =   -124.176077101
     EC              =     -4.112657130
     EX+EC           =   -128.288734230
Transforming the Hamiltonian                       ... done (   0.0 sec)
Diagonalizing the Hamiltonian                      ... done (   0.0 sec)
Back transforming the eigenvectors                 ... done (   0.0 sec)
Now organizing SCF variables                       ... done
                      ------------------
                      INITIAL GUESS DONE (   0.7 sec)
                      ------------------
--------------
SCF ITERATIONS
--------------
ITER       Energy         Delta-E        Max-DP      RMS-DP      [F,P]     Damp
               ***  Starting incremental Fock matrix formation  ***
  0  -1819.7775020381   0.000000000000 0.42394800  0.00389080  0.3485303 0.7000
  1  -1819.8844000967  -0.106898058639 0.21396901  0.00247466  0.2536452 0.7000
                               ***Turning on DIIS***
  2  -1820.0417816730  -0.157381576257 0.17090499  0.00299372  0.0998776 0.0000
  3  -1820.2996421114  -0.257860438423 0.03943239  0.00048744  0.1469876 0.7000
  4  -1820.3152361402  -0.015594028842 0.03789116  0.00045468  0.1267253 0.7000
  5  -1820.3281841198  -0.012947979551 0.03188079  0.00036500  0.1009827 0.7000
  6  -1820.3378513963  -0.009667276563 0.08587647  0.00092945  0.0737969 0.0000
  7  -1820.3545200099  -0.016668613588 0.01152889  0.00013501  0.0106056 0.0000
  8  -1820.3548150792  -0.000295069276 0.00190081  0.00004287  0.0047741 0.0000
  9  -1820.3549484351  -0.000133355855 0.00271073  0.00003150  0.0047414 0.0000
 10  -1820.3550024706  -0.000054035483 0.00167815  0.00002759  0.0009849 0.0000
 11  -1820.3550182392  -0.000015768622 0.00077414  0.00000798  0.0004909 0.0000
 12  -1820.3550202142  -0.000001975005 0.00033695  0.00000471  0.0000641 0.0000
 13  -1820.3550204028  -0.000000188605 0.00007616  0.00000148  0.0001917 0.0000
 14  -1820.3550204105  -0.000000007707 0.00013430  0.00000141  0.0000313 0.0000
 15  -1820.3550203013   0.000000109161 0.00006303  0.00000062  0.0001041 0.0000
 16  -1820.3550202749   0.000000026448 0.00008174  0.00000073  0.0000219 0.0000
                 **** Energy Check signals convergence ****

               *****************************************************
               *                     SUCCESS                       *
               *           SCF CONVERGED AFTER  17 CYCLES          *
               *****************************************************

Setting up the final grid:

General Integration Accuracy     IntAcc      ...  4.670
Radial Grid Type                 RadialGrid  ... Gauss-Chebyshev
Angular Grid (max. acc.)         AngularGrid ... Lebedev-302
Angular grid pruning method      GridPruning ... 3 (G Style)
Weight generation scheme         WeightScheme... Becke
Basis function cutoff            BFCut       ...    1.0000e-10
Integration weight cutoff        WCut        ...    1.0000e-14
Grids for H and He will be reduced by one unit

# of grid points (after initial pruning)     ...  84184 (   0.0 sec)
# of grid points (after weights+screening)   ...  78756 (   0.1 sec)
nearest neighbour list constructed           ...    0.0 sec
Grid point re-assignment to atoms done       ...    0.0 sec
Grid point division into batches done        ...    0.4 sec
Reduced shell lists constructed in    0.8 sec

Total number of grid points                  ...    78756
Total number of batches                      ...     1238
Average number of points per batch           ...       63
Average number of grid points per atom       ...     6058
Average number of shells per batch           ...    43.74 (52.69%)
Average number of basis functions per batch  ...   102.47 (51.49%)
Average number of large shells per batch     ...    30.65 (70.08%)
Average number of large basis fcns per batch ...    70.64 (68.93%)
Maximum spatial batch extension              ...  21.25, 26.79, 26.79 au
Average spatial batch extension              ...   2.68,  2.71,  2.70 au

Final grid set up in    0.9 sec
Final integration                            ... done (   1.0 sec)
Change in XC energy                          ...     0.000184101
Integrated number of electrons               ...   107.000254211
Previous integrated no of electrons          ...   107.006814042

----------------
TOTAL SCF ENERGY
----------------

Total Energy       :        -1820.35483622 Eh          -49534.37337 eV

Components:
Nuclear Repulsion  :          906.36394031 Eh           24663.41668 eV
Electronic Energy  :        -2726.71877653 Eh          -74197.79005 eV
One Electron Energy:        -4352.16774146 Eh         -118428.50503 eV
Two Electron Energy:         1625.44896493 Eh           44230.71498 eV

Virial components:
Potential Energy   :        -3632.58302416 Eh          -98847.60940 eV
Kinetic Energy     :         1812.22818794 Eh           49313.23603 eV
Virial Ratio       :            2.00448434


DFT components:
N(Alpha)           :       54.000126648265 electrons
N(Beta)            :       53.000127562243 electrons
N(Total)           :      107.000254210508 electrons
E(X)               :     -125.760130048903 Eh       
E(C)               :       -4.281557782673 Eh       
E(XC)              :     -130.041687831576 Eh       
DFET-embed. en.    :        0.000000000000 Eh       

---------------
SCF CONVERGENCE
---------------

  Last Energy change         ...   -4.2976e-08  Tolerance :   1.0000e-06
  Last MAX-Density change    ...    1.4240e-04  Tolerance :   1.0000e-05
  Last RMS-Density change    ...    1.1089e-06  Tolerance :   1.0000e-06
  Last DIIS Error            ...    1.6695e-05  Tolerance :   1.0000e-06

             **** THE GBW FILE WAS UPDATED (moess.gbw) ****
             **** DENSITY FILE WAS UPDATED (moess.scfp.tmp) ****
             **** ENERGY FILE WAS UPDATED (moess.en.tmp) ****
----------------------
UHF SPIN CONTAMINATION
----------------------

Warning: in a DFT calculation there is little theoretical justification to 
         calculate <S**2> as in Hartree-Fock theory. We will do it anyways
         but you should keep in mind that the values have only limited relevance

Expectation value of <S**2>     :     0.759988
Ideal value S*(S+1) for S=0.5   :     0.750000
Deviation                       :     0.009988

----------------
ORBITAL ENERGIES
----------------
                 SPIN UP ORBITALS
  NO   OCC          E(Eh)            E(eV) 
   0   1.0000    -254.433334     -6923.4830 
   1   1.0000     -29.203325      -794.6629 
   2   1.0000     -25.165335      -684.7836 
   3   1.0000     -25.147392      -684.2953 
   4   1.0000     -25.147316      -684.2933 
   5   1.0000     -13.560052      -368.9878 
   6   1.0000     -13.560045      -368.9876 
   7   1.0000     -13.560043      -368.9875 
   8   1.0000     -13.560022      -368.9870 
   9   1.0000     -13.559988      -368.9860 
  10   1.0000     -13.559927      -368.9844 
  11   1.0000      -9.497720      -258.4461 
  12   1.0000      -9.497712      -258.4459 
  13   1.0000      -9.497681      -258.4450 
  14   1.0000      -9.497623      -258.4435 
  15   1.0000      -9.497607      -258.4430 
  16   1.0000      -9.497568      -258.4420 
  17   1.0000      -2.888046       -78.5877 
  18   1.0000      -1.727829       -47.0166 
  19   1.0000      -1.689455       -45.9724 
  20   1.0000      -1.689295       -45.9681 
  21   1.0000      -0.364181        -9.9099 
  22   1.0000      -0.360712        -9.8155 
  23   1.0000      -0.360675        -9.8145 
  24   1.0000      -0.360106        -9.7990 
  25   1.0000      -0.359153        -9.7730 
  26   1.0000      -0.359109        -9.7719 
  27   1.0000      -0.040371        -1.0985 
  28   1.0000       0.042879         1.1668 
  29   1.0000       0.042920         1.1679 
  30   1.0000       0.043816         1.1923 
  31   1.0000       0.043880         1.1940 
  32   1.0000       0.050351         1.3701 
  33   1.0000       0.096332         2.6213 
  34   1.0000       0.102456         2.7880 
  35   1.0000       0.102490         2.7889 
  36   1.0000       0.116387         3.1670 
  37   1.0000       0.119372         3.2483 
  38   1.0000       0.119408         3.2493 
  39   1.0000       0.120751         3.2858 
  40   1.0000       0.120834         3.2881 
  41   1.0000       0.120847         3.2884 
  42   1.0000       0.139043         3.7836 
  43   1.0000       0.140383         3.8200 
  44   1.0000       0.140398         3.8204 
  45   1.0000       0.150614         4.0984 
  46   1.0000       0.150643         4.0992 
  47   1.0000       0.151953         4.1349 
  48   1.0000       0.166010         4.5174 
  49   1.0000       0.166065         4.5189 
  50   1.0000       0.171476         4.6661 
  51   1.0000       0.183186         4.9847 
  52   1.0000       0.215795         5.8721 
  53   1.0000       0.215816         5.8726 
  54   0.0000       0.366157         9.9636 
  55   0.0000       0.366235         9.9658 
  56   0.0000       0.412698        11.2301 
  57   0.0000       0.418776        11.3955 
  58   0.0000       0.423461        11.5229 
  59   0.0000       0.423502        11.5241 
  60   0.0000       0.441328        12.0091 
  61   0.0000       0.441881        12.0242 
  62   0.0000       0.441884        12.0243 
  63   0.0000       0.456249        12.4152 
  64   0.0000       0.462598        12.5879 
  65   0.0000       0.462650        12.5893 
  66   0.0000       0.502042        13.6612 
  67   0.0000       0.502068        13.6620 
  68   0.0000       0.503080        13.6895 
  69   0.0000       0.640801        17.4371 
  70   0.0000       0.640856        17.4386 
  71   0.0000       0.647497        17.6193 
  72   0.0000       0.676959        18.4210 
  73   0.0000       0.759020        20.6540 
  74   0.0000       0.759062        20.6551 
  75   0.0000       0.867701        23.6114 
  76   0.0000       0.873368        23.7656 
  77   0.0000       0.873385        23.7660 
  78   0.0000       0.886609        24.1259 
  79   0.0000       0.902407        24.5557 
  80   0.0000       0.928258        25.2592 
  81   0.0000       0.928370        25.2622 
  82   0.0000       0.959962        26.1219 
  83   0.0000       0.962170        26.1820 
  84   0.0000       0.962211        26.1831 
  85   0.0000       0.970396        26.4058 
  86   0.0000       0.972573        26.4651 
  87   0.0000       0.972702        26.4686 
  88   0.0000       1.012750        27.5583 
  89   0.0000       1.012774        27.5590 
  90   0.0000       1.024017        27.8649 
  91   0.0000       1.024633        27.8817 
  92   0.0000       1.024670        27.8827 
  93   0.0000       1.043138        28.3852 
  94   0.0000       1.078605        29.3503 
  95   0.0000       1.078639        29.3513 
  96   0.0000       1.079560        29.3763 
  97   0.0000       1.142221        31.0814 
  98   0.0000       1.144399        31.1407 
  99   0.0000       1.144408        31.1409 
 100   0.0000       1.162953        31.6456 
 101   0.0000       1.166603        31.7449 
 102   0.0000       1.166614        31.7452 
 103   0.0000       1.187032        32.3008 
 104   0.0000       1.192288        32.4438 
 105   0.0000       1.192323        32.4448 
 106   0.0000       1.229397        33.4536 
 107   0.0000       1.229457        33.4552 
 108   0.0000       1.240026        33.7428 
 109   0.0000       1.275366        34.7045 
 110   0.0000       1.293754        35.2048 
 111   0.0000       1.293815        35.2065 
 112   0.0000       1.294603        35.2279 
 113   0.0000       1.294823        35.2339 
 114   0.0000       1.375265        37.4229 
 115   0.0000       1.386752        37.7354 
 116   0.0000       1.386956        37.7410 
 117   0.0000       1.386970        37.7414 
 118   0.0000       1.415144        38.5080 
 119   0.0000       1.415170        38.5087 
 120   0.0000       1.456171        39.6244 
 121   0.0000       1.490173        40.5497 
 122   0.0000       1.598053        43.4852 
 123   0.0000       1.598113        43.4869 
 124   0.0000       1.608108        43.7588 
 125   0.0000       1.629461        44.3399 
 126   0.0000       1.629797        44.3490 
 127   0.0000       1.631969        44.4081 
 128   0.0000       1.632043        44.4102 
 129   0.0000       1.685412        45.8624 
 130   0.0000       1.966592        53.5137 
 131   0.0000       1.966876        53.5214 
 132   0.0000       1.990050        54.1520 
 133   0.0000       1.995559        54.3019 
 134   0.0000       1.995682        54.3053 
 135   0.0000       2.006244        54.5927 
 136   0.0000       2.012971        54.7757 
 137   0.0000       2.013010        54.7768 
 138   0.0000       2.013331        54.7855 
 139   0.0000       2.013347        54.7860 
 140   0.0000       2.016615        54.8749 
 141   0.0000       2.016797        54.8798 
 142   0.0000       2.035455        55.3875 
 143   0.0000       2.035559        55.3904 
 144   0.0000       2.037379        55.4399 
 145   0.0000       2.059634        56.0455 
 146   0.0000       2.073432        56.4209 
 147   0.0000       2.073611        56.4258 
 148   0.0000       2.136490        58.1369 
 149   0.0000       2.136880        58.1475 
 150   0.0000       2.156439        58.6797 
 151   0.0000       2.191258        59.6272 
 152   0.0000       2.191332        59.6292 
 153   0.0000       2.245412        61.1008 
 154   0.0000       2.261263        61.5321 
 155   0.0000       2.261341        61.5342 
 156   0.0000       2.612283        71.0838 
 157   0.0000       2.613866        71.1269 
 158   0.0000       2.613901        71.1279 
 159   0.0000       2.615041        71.1589 
 160   0.0000       2.615065        71.1595 
 161   0.0000       2.616574        71.2006 
 162   0.0000       2.616828        71.2075 
 163   0.0000       2.619697        71.2856 
 164   0.0000       2.621704        71.3402 
 165   0.0000       2.621751        71.3415 
 166   0.0000       2.647492        72.0419 
 167   0.0000       2.647527        72.0429 
 168   0.0000       2.813051        76.5470 
 169   0.0000       2.863374        77.9164 
 170   0.0000       2.864048        77.9347 
 171   0.0000       3.026618        82.3585 
 172   0.0000       3.186711        86.7148 
 173   0.0000       3.186730        86.7153 
 174   0.0000       3.188200        86.7553 
 175   0.0000       3.194565        86.9285 
 176   0.0000       3.194668        86.9313 
 177   0.0000       3.197874        87.0186 
 178   0.0000       3.253597        88.5349 
 179   0.0000       3.264344        88.8273 
 180   0.0000       3.264385        88.8284 
 181   0.0000       3.284389        89.3728 
 182   0.0000       3.284441        89.3742 
 183   0.0000       3.296297        89.6968 
 184   0.0000       3.312565        90.1395 
 185   0.0000       3.312689        90.1429 
 186   0.0000       3.601148        97.9922 
 187   0.0000       3.605942        98.1227 
 188   0.0000       3.606015        98.1247 
 189   0.0000       3.632041        98.8329 
 190   0.0000       3.760563       102.3301 
 191   0.0000       3.760657       102.3327 
 192   0.0000       4.394283       119.5745 
 193   0.0000       4.408551       119.9628 
 194   0.0000       4.408570       119.9633 
 195   0.0000       4.433996       120.6552 
 196   0.0000       4.582719       124.7021 
 197   0.0000       4.582911       124.7073 
 198   0.0000       4.585780       124.7854 

                 SPIN DOWN ORBITALS
  NO   OCC          E(Eh)            E(eV) 
   0   1.0000    -254.433158     -6923.4782 
   1   1.0000     -29.186311      -794.1999 
   2   1.0000     -25.145606      -684.2467 
   3   1.0000     -25.137948      -684.0383 
   4   1.0000     -25.137915      -684.0374 
   5   1.0000     -13.559537      -368.9737 
   6   1.0000     -13.559530      -368.9736 
   7   1.0000     -13.559527      -368.9735 
   8   1.0000     -13.559508      -368.9730 
   9   1.0000     -13.559476      -368.9721 
  10   1.0000     -13.559414      -368.9704 
  11   1.0000      -9.498306      -258.4620 
  12   1.0000      -9.498297      -258.4618 
  13   1.0000      -9.498265      -258.4609 
  14   1.0000      -9.498208      -258.4594 
  15   1.0000      -9.498191      -258.4589 
  16   1.0000      -9.498152      -258.4578 
  17   1.0000      -2.848023       -77.4987 
  18   1.0000      -1.667286       -45.3692 
  19   1.0000      -1.661033       -45.1990 
  20   1.0000      -1.661007       -45.1983 
  21   1.0000      -0.363448        -9.8899 
  22   1.0000      -0.359951        -9.7948 
  23   1.0000      -0.359917        -9.7938 
  24   1.0000      -0.359325        -9.7777 
  25   1.0000      -0.358366        -9.7516 
  26   1.0000      -0.358326        -9.7506 
  27   1.0000      -0.039184        -1.0662 
  28   1.0000       0.043206         1.1757 
  29   1.0000       0.043275         1.1776 
  30   1.0000       0.047277         1.2865 
  31   1.0000       0.047323         1.2877 
  32   1.0000       0.050963         1.3868 
  33   1.0000       0.104616         2.8467 
  34   1.0000       0.104647         2.8476 
  35   1.0000       0.108457         2.9513 
  36   1.0000       0.117210         3.1894 
  37   1.0000       0.121198         3.2980 
  38   1.0000       0.121207         3.2982 
  39   1.0000       0.121801         3.3144 
  40   1.0000       0.123221         3.3530 
  41   1.0000       0.123259         3.3541 
  42   1.0000       0.138904         3.7798 
  43   1.0000       0.141562         3.8521 
  44   1.0000       0.141578         3.8525 
  45   1.0000       0.151942         4.1345 
  46   1.0000       0.152015         4.1365 
  47   1.0000       0.152031         4.1370 
  48   1.0000       0.165847         4.5129 
  49   1.0000       0.165904         4.5145 
  50   1.0000       0.172640         4.6978 
  51   1.0000       0.233023         6.3409 
  52   1.0000       0.233037         6.3413 
  53   0.0000       0.248231         6.7547 
  54   0.0000       0.379469        10.3259 
  55   0.0000       0.379559        10.3283 
  56   0.0000       0.412997        11.2382 
  57   0.0000       0.427038        11.6203 
  58   0.0000       0.427067        11.6211 
  59   0.0000       0.432173        11.7600 
  60   0.0000       0.441345        12.0096 
  61   0.0000       0.441351        12.0098 
  62   0.0000       0.441613        12.0169 
  63   0.0000       0.455389        12.3918 
  64   0.0000       0.462357        12.5814 
  65   0.0000       0.462410        12.5828 
  66   0.0000       0.501582        13.6487 
  67   0.0000       0.501606        13.6494 
  68   0.0000       0.502083        13.6624 
  69   0.0000       0.640891        17.4395 
  70   0.0000       0.640947        17.4411 
  71   0.0000       0.648222        17.6390 
  72   0.0000       0.678999        18.4765 
  73   0.0000       0.759456        20.6659 
  74   0.0000       0.759498        20.6670 
  75   0.0000       0.868063        23.6212 
  76   0.0000       0.872361        23.7381 
  77   0.0000       0.872379        23.7386 
  78   0.0000       0.891368        24.2554 
  79   0.0000       0.909832        24.7578 
  80   0.0000       0.928897        25.2766 
  81   0.0000       0.928996        25.2793 
  82   0.0000       0.963410        26.2157 
  83   0.0000       0.963474        26.2174 
  84   0.0000       0.966769        26.3071 
  85   0.0000       0.969730        26.3877 
  86   0.0000       0.973167        26.4812 
  87   0.0000       0.973303        26.4849 
  88   0.0000       1.013176        27.5699 
  89   0.0000       1.013197        27.5705 
  90   0.0000       1.024576        27.8801 
  91   0.0000       1.025098        27.8943 
  92   0.0000       1.025132        27.8953 
  93   0.0000       1.043799        28.4032 
  94   0.0000       1.079632        29.3783 
  95   0.0000       1.079747        29.3814 
  96   0.0000       1.079774        29.3821 
  97   0.0000       1.143509        31.1165 
  98   0.0000       1.144362        31.1397 
  99   0.0000       1.144367        31.1398 
 100   0.0000       1.164048        31.6753 
 101   0.0000       1.166619        31.7453 
 102   0.0000       1.166630        31.7456 
 103   0.0000       1.193382        32.4736 
 104   0.0000       1.193900        32.4877 
 105   0.0000       1.193929        32.4885 
 106   0.0000       1.230845        33.4930 
 107   0.0000       1.230904        33.4946 
 108   0.0000       1.239927        33.7401 
 109   0.0000       1.278025        34.7768 
 110   0.0000       1.293455        35.1967 
 111   0.0000       1.293517        35.1984 
 112   0.0000       1.295118        35.2419 
 113   0.0000       1.295333        35.2478 
 114   0.0000       1.386236        37.7214 
 115   0.0000       1.386916        37.7399 
 116   0.0000       1.386932        37.7403 
 117   0.0000       1.398639        38.0589 
 118   0.0000       1.422209        38.7003 
 119   0.0000       1.422231        38.7009 
 120   0.0000       1.469578        39.9893 
 121   0.0000       1.491592        40.5883 
 122   0.0000       1.598373        43.4939 
 123   0.0000       1.598434        43.4956 
 124   0.0000       1.608636        43.7732 
 125   0.0000       1.628925        44.3253 
 126   0.0000       1.629259        44.3344 
 127   0.0000       1.632362        44.4188 
 128   0.0000       1.632431        44.4207 
 129   0.0000       1.686543        45.8932 
 130   0.0000       1.973523        53.7023 
 131   0.0000       1.973821        53.7104 
 132   0.0000       1.988844        54.1192 
 133   0.0000       1.995038        54.2877 
 134   0.0000       1.995163        54.2912 
 135   0.0000       2.004868        54.5552 
 136   0.0000       2.011581        54.7379 
 137   0.0000       2.011622        54.7390 
 138   0.0000       2.011975        54.7486 
 139   0.0000       2.011993        54.7491 
 140   0.0000       2.015307        54.8393 
 141   0.0000       2.015470        54.8437 
 142   0.0000       2.035642        55.3926 
 143   0.0000       2.035717        55.3947 
 144   0.0000       2.036154        55.4066 
 145   0.0000       2.058375        56.0112 
 146   0.0000       2.072201        56.3874 
 147   0.0000       2.072382        56.3924 
 148   0.0000       2.136246        58.1302 
 149   0.0000       2.136641        58.1410 
 150   0.0000       2.158548        58.7371 
 151   0.0000       2.190519        59.6071 
 152   0.0000       2.190591        59.6090 
 153   0.0000       2.255520        61.3758 
 154   0.0000       2.262832        61.5748 
 155   0.0000       2.262909        61.5769 
 156   0.0000       2.614208        71.1362 
 157   0.0000       2.615814        71.1799 
 158   0.0000       2.615840        71.1806 
 159   0.0000       2.616974        71.2115 
 160   0.0000       2.616992        71.2120 
 161   0.0000       2.618546        71.2543 
 162   0.0000       2.618718        71.2589 
 163   0.0000       2.621533        71.3355 
 164   0.0000       2.623513        71.3894 
 165   0.0000       2.623553        71.3905 
 166   0.0000       2.648977        72.0823 
 167   0.0000       2.649005        72.0831 
 168   0.0000       2.816389        76.6378 
 169   0.0000       2.863320        77.9149 
 170   0.0000       2.863991        77.9332 
 171   0.0000       3.028216        82.4020 
 172   0.0000       3.187570        86.7382 
 173   0.0000       3.187586        86.7386 
 174   0.0000       3.187746        86.7430 
 175   0.0000       3.195272        86.9478 
 176   0.0000       3.195368        86.9504 
 177   0.0000       3.197345        87.0042 
 178   0.0000       3.255463        88.5857 
 179   0.0000       3.264223        88.8240 
 180   0.0000       3.264262        88.8251 
 181   0.0000       3.286834        89.4393 
 182   0.0000       3.286888        89.4408 
 183   0.0000       3.299508        89.7842 
 184   0.0000       3.312688        90.1428 
 185   0.0000       3.312815        90.1463 
 186   0.0000       3.602578        98.0311 
 187   0.0000       3.606540        98.1389 
 188   0.0000       3.606608        98.1408 
 189   0.0000       3.632423        98.8433 
 190   0.0000       3.761803       102.3639 
 191   0.0000       3.761898       102.3665 
 192   0.0000       4.447369       121.0191 
 193   0.0000       4.452165       121.1496 
 194   0.0000       4.452225       121.1512 
 195   0.0000       4.463234       121.4508 
 196   0.0000       4.595938       125.0618 
 197   0.0000       4.596126       125.0669 
 198   0.0000       4.629634       125.9787 

                    ********************************
                    * MULLIKEN POPULATION ANALYSIS *
                    ********************************

--------------------------------------------
MULLIKEN ATOMIC CHARGES AND SPIN POPULATIONS
--------------------------------------------
   0 Fe:   -1.572959    1.131367
   1 C :   -0.017130   -0.055252
   2 C :   -0.017145   -0.055257
   3 C :   -0.017280   -0.055215
   4 C :   -0.017263   -0.055234
   5 C :   -0.017201   -0.055151
   6 C :   -0.017215   -0.055133
   7 N :   -0.220609    0.033411
   8 N :   -0.220613    0.033417
   9 N :   -0.220663    0.033318
  10 N :   -0.220679    0.033349
  11 N :   -0.220625    0.033205
  12 N :   -0.220619    0.033174
Sum of atomic charges         :   -3.0000000
Sum of atomic spin populations:    1.0000000

-----------------------------------------------------
MULLIKEN REDUCED ORBITAL CHARGES AND SPIN POPULATIONS
-----------------------------------------------------
CHARGE
  0 Fes       :     7.019870  s :     7.019870
      pz      :     4.709533  p :    14.128090
      px      :     4.709424
      py      :     4.709133
      dz2     :     0.953145  d :     6.423393
      dxz     :     1.506149
      dyz     :     1.506590
      dx2y2   :     0.953366
      dxy     :     1.504142
      f0      :     0.000458  f :     0.001606
      f+1     :     0.000215
      f-1     :     0.000215
      f+2     :     0.000069
      f-2     :     0.000025
      f+3     :     0.000312
      f-3     :     0.000312
  1 C s       :     3.318086  s :     3.318086
      pz      :     0.843722  p :     2.657549
      px      :     0.970092
      py      :     0.843735
      dz2     :     0.002860  d :     0.041494
      dxz     :     0.015211
      dyz     :     0.000120
      dx2y2   :     0.008102
      dxy     :     0.015202
  2 C s       :     3.318078  s :     3.318078
      pz      :     0.843733  p :     2.657572
      px      :     0.970114
      py      :     0.843724
      dz2     :     0.002860  d :     0.041495
      dxz     :     0.015211
      dyz     :     0.000120
      dx2y2   :     0.008102
      dxy     :     0.015203
  3 C s       :     3.318255  s :     3.318255
      pz      :     0.843735  p :     2.657530
      px      :     0.843714
      py      :     0.970081
      dz2     :     0.002859  d :     0.041496
      dxz     :     0.000120
      dyz     :     0.015212
      dx2y2   :     0.008102
      dxy     :     0.015202
  4 C s       :     3.318247  s :     3.318247
      pz      :     0.843713  p :     2.657522
      px      :     0.843723
      py      :     0.970086
      dz2     :     0.002860  d :     0.041495
      dxz     :     0.000120
      dyz     :     0.015212
      dx2y2   :     0.008102
      dxy     :     0.015201
  5 C s       :     3.318115  s :     3.318115
      pz      :     0.970076  p :     2.657586
      px      :     0.843744
      py      :     0.843766
      dz2     :     0.010723  d :     0.041500
      dxz     :     0.015209
      dyz     :     0.015210
      dx2y2   :     0.000238
      dxy     :     0.000120
  6 C s       :     3.318144  s :     3.318144
      pz      :     0.970056  p :     2.657571
      px      :     0.843756
      py      :     0.843758
      dz2     :     0.010723  d :     0.041500
      dxz     :     0.015209
      dyz     :     0.015210
      dx2y2   :     0.000239
      dxy     :     0.000120
  7 N s       :     3.538328  s :     3.538328
      pz      :     1.179271  p :     3.658306
      px      :     1.299940
      py      :     1.179095
      dz2     :     0.002364  d :     0.023975
      dxz     :     0.007261
      dyz     :     0.000001
      dx2y2   :     0.007088
      dxy     :     0.007261
  8 N s       :     3.538328  s :     3.538328
      pz      :     1.179268  p :     3.658309
      px      :     1.299947
      py      :     1.179094
      dz2     :     0.002364  d :     0.023976
      dxz     :     0.007262
      dyz     :     0.000001
      dx2y2   :     0.007088
      dxy     :     0.007262
  9 N s       :     3.538348  s :     3.538348
      pz      :     1.179287  p :     3.658338
      px      :     1.179092
      py      :     1.299959
      dz2     :     0.002364  d :     0.023977
      dxz     :     0.000001
      dyz     :     0.007262
      dx2y2   :     0.007088
      dxy     :     0.007262
 10 N s       :     3.538369  s :     3.538369
      pz      :     1.179293  p :     3.658334
      px      :     1.179084
      py      :     1.299957
      dz2     :     0.002364  d :     0.023976
      dxz     :     0.000001
      dyz     :     0.007262
      dx2y2   :     0.007088
      dxy     :     0.007262
 11 N s       :     3.538251  s :     3.538251
      pz      :     1.299936  p :     3.658399
      px      :     1.179221
      py      :     1.179242
      dz2     :     0.009450  d :     0.023974
      dxz     :     0.007261
      dyz     :     0.007261
      dx2y2   :     0.000002
      dxy     :     0.000001
 12 N s       :     3.538243  s :     3.538243
      pz      :     1.299932  p :     3.658401
      px      :     1.179229
      py      :     1.179240
      dz2     :     0.009449  d :     0.023974
      dxz     :     0.007261
      dyz     :     0.007261
      dx2y2   :     0.000002
      dxy     :     0.000001

SPIN
  0 Fes       :     0.066144  s :     0.066144
      pz      :     0.027396  p :     0.082334
      px      :     0.027483
      py      :     0.027456
      dz2     :     0.041541  d :     0.982863
      dxz     :     0.299334
      dyz     :     0.298893
      dx2y2   :     0.041451
      dxy     :     0.301644
      f0      :     0.000004  f :     0.000026
      f+1     :     0.000001
      f-1     :     0.000001
      f+2     :    -0.000001
      f-2     :     0.000019
      f+3     :     0.000002
      f-3     :     0.000002
  1 C s       :    -0.018199  s :    -0.018199
      pz      :    -0.009745  p :    -0.038258
      px      :    -0.018724
      py      :    -0.009789
      dz2     :     0.000006  d :     0.001205
      dxz     :     0.000577
      dyz     :     0.000010
      dx2y2   :     0.000029
      dxy     :     0.000583
  2 C s       :    -0.018199  s :    -0.018199
      pz      :    -0.009747  p :    -0.038263
      px      :    -0.018727
      py      :    -0.009790
      dz2     :     0.000006  d :     0.001205
      dxz     :     0.000577
      dyz     :     0.000010
      dx2y2   :     0.000029
      dxy     :     0.000583
  3 C s       :    -0.018188  s :    -0.018188
      pz      :    -0.009734  p :    -0.038229
      px      :    -0.009776
      py      :    -0.018719
      dz2     :     0.000006  d :     0.001202
      dxz     :     0.000010
      dyz     :     0.000575
      dx2y2   :     0.000029
      dxy     :     0.000582
  4 C s       :    -0.018191  s :    -0.018191
      pz      :    -0.009738  p :    -0.038245
      px      :    -0.009784
      py      :    -0.018723
      dz2     :     0.000006  d :     0.001202
      dxz     :     0.000010
      dyz     :     0.000576
      dx2y2   :     0.000029
      dxy     :     0.000582
  5 C s       :    -0.018173  s :    -0.018173
      pz      :    -0.018711  p :    -0.038176
      px      :    -0.009733
      py      :    -0.009733
      dz2     :     0.000040  d :     0.001198
      dxz     :     0.000577
      dyz     :     0.000576
      dx2y2   :    -0.000005
      dxy     :     0.000010
  6 C s       :    -0.018169  s :    -0.018169
      pz      :    -0.018707  p :    -0.038161
      px      :    -0.009726
      py      :    -0.009728
      dz2     :     0.000040  d :     0.001197
      dxz     :     0.000577
      dyz     :     0.000576
      dx2y2   :    -0.000005
      dxy     :     0.000010
  7 N s       :     0.000043  s :     0.000043
      pz      :     0.017417  p :     0.033379
      px      :    -0.001611
      py      :     0.017573
      dz2     :    -0.000004  d :    -0.000011
      dxz     :     0.000002
      dyz     :     0.000000
      dx2y2   :    -0.000011
      dxy     :     0.000002
  8 N s       :     0.000042  s :     0.000042
      pz      :     0.017417  p :     0.033386
      px      :    -0.001610
      py      :     0.017580
      dz2     :    -0.000004  d :    -0.000011
      dxz     :     0.000002
      dyz     :     0.000000
      dx2y2   :    -0.000011
      dxy     :     0.000002
  9 N s       :     0.000039  s :     0.000039
      pz      :     0.017359  p :     0.033289
      px      :     0.017542
      py      :    -0.001611
      dz2     :    -0.000004  d :    -0.000011
      dxz     :     0.000000
      dyz     :     0.000002
      dx2y2   :    -0.000011
      dxy     :     0.000002
 10 N s       :     0.000040  s :     0.000040
      pz      :     0.017372  p :     0.033320
      px      :     0.017558
      py      :    -0.001611
      dz2     :    -0.000004  d :    -0.000011
      dxz     :     0.000000
      dyz     :     0.000002
      dx2y2   :    -0.000011
      dxy     :     0.000002
 11 N s       :     0.000036  s :     0.000036
      pz      :    -0.001616  p :     0.033180
      px      :     0.017414
      py      :     0.017382
      dz2     :    -0.000015  d :    -0.000011
      dxz     :     0.000002
      dyz     :     0.000002
      dx2y2   :    -0.000000
      dxy     :     0.000000
 12 N s       :     0.000035  s :     0.000035
      pz      :    -0.001618  p :     0.033150
      px      :     0.017390
      py      :     0.017377
      dz2     :    -0.000015  d :    -0.000011
      dxz     :     0.000002
      dyz     :     0.000002
      dx2y2   :    -0.000000
      dxy     :     0.000000


                     *******************************
                     * LOEWDIN POPULATION ANALYSIS *
                     *******************************

-------------------------------------------
LOEWDIN ATOMIC CHARGES AND SPIN POPULATIONS
-------------------------------------------
   0 Fe:   -0.519398    0.986746
   1 C :   -0.098716   -0.028089
   2 C :   -0.098725   -0.028089
   3 C :   -0.098740   -0.028079
   4 C :   -0.098746   -0.028086
   5 C :   -0.098771   -0.028038
   6 C :   -0.098763   -0.028032
   7 N :   -0.314658    0.030365
   8 N :   -0.314652    0.030373
   9 N :   -0.314667    0.030281
  10 N :   -0.314666    0.030311
  11 N :   -0.314746    0.030183
  12 N :   -0.314753    0.030154

----------------------------------------------------
LOEWDIN REDUCED ORBITAL CHARGES AND SPIN POPULATIONS
----------------------------------------------------
CHARGE
  0 Fes       :     6.457126  s :     6.457126
      pz      :     4.453503  p :    13.360448
      px      :     4.453505
      py      :     4.453440
      dz2     :     1.079455  d :     6.699056
      dxz     :     1.513846
      dyz     :     1.514296
      dx2y2   :     1.079631
      dxy     :     1.511828
      f0      :     0.000818  f :     0.002768
      f+1     :     0.000367
      f-1     :     0.000367
      f+2     :     0.000097
      f-2     :     0.000025
      f+3     :     0.000547
      f-3     :     0.000547
  1 C s       :     3.102747  s :     3.102747
      pz      :     0.854787  p :     2.901678
      px      :     1.192090
      py      :     0.854800
      dz2     :     0.008813  d :     0.094291
      dxz     :     0.029819
      dyz     :     0.000144
      dx2y2   :     0.025714
      dxy     :     0.029801
  2 C s       :     3.102743  s :     3.102743
      pz      :     0.854796  p :     2.901689
      px      :     1.192098
      py      :     0.854794
      dz2     :     0.008813  d :     0.094294
      dxz     :     0.029820
      dyz     :     0.000144
      dx2y2   :     0.025715
      dxy     :     0.029802
  3 C s       :     3.102796  s :     3.102796
      pz      :     0.854796  p :     2.901657
      px      :     0.854783
      py      :     1.192077
      dz2     :     0.008812  d :     0.094288
      dxz     :     0.000143
      dyz     :     0.029820
      dx2y2   :     0.025713
      dxy     :     0.029799
  4 C s       :     3.102803  s :     3.102803
      pz      :     0.854784  p :     2.901656
      px      :     0.854791
      py      :     1.192081
      dz2     :     0.008812  d :     0.094286
      dxz     :     0.000143
      dyz     :     0.029819
      dx2y2   :     0.025713
      dxy     :     0.029798
  5 C s       :     3.102747  s :     3.102747
      pz      :     1.192065  p :     2.901720
      px      :     0.854822
      py      :     0.854832
      dz2     :     0.034163  d :     0.094304
      dxz     :     0.029816
      dyz     :     0.029819
      dx2y2   :     0.000363
      dxy     :     0.000143
  6 C s       :     3.102754  s :     3.102754
      pz      :     1.192053  p :     2.901708
      px      :     0.854827
      py      :     0.854828
      dz2     :     0.034162  d :     0.094301
      dxz     :     0.029816
      dyz     :     0.029817
      dx2y2   :     0.000363
      dxy     :     0.000143
  7 N s       :     3.433016  s :     3.433016
      pz      :     1.165593  p :     3.839426
      px      :     1.508408
      py      :     1.165425
      dz2     :     0.005503  d :     0.042216
      dxz     :     0.010104
      dyz     :     0.000001
      dx2y2   :     0.016505
      dxy     :     0.010104
  8 N s       :     3.433009  s :     3.433009
      pz      :     1.165588  p :     3.839426
      px      :     1.508414
      py      :     1.165424
      dz2     :     0.005503  d :     0.042217
      dxz     :     0.010104
      dyz     :     0.000001
      dx2y2   :     0.016505
      dxy     :     0.010104
  9 N s       :     3.433002  s :     3.433002
      pz      :     1.165605  p :     3.839446
      px      :     1.165420
      py      :     1.508421
      dz2     :     0.005503  d :     0.042219
      dxz     :     0.000001
      dyz     :     0.010104
      dx2y2   :     0.016505
      dxy     :     0.010105
 10 N s       :     3.433010  s :     3.433010
      pz      :     1.165610  p :     3.839438
      px      :     1.165410
      py      :     1.508418
      dz2     :     0.005503  d :     0.042217
      dxz     :     0.000001
      dyz     :     0.010104
      dx2y2   :     0.016505
      dxy     :     0.010104
 11 N s       :     3.433011  s :     3.433011
      pz      :     1.508395  p :     3.839519
      px      :     1.165553
      py      :     1.165571
      dz2     :     0.022005  d :     0.042215
      dxz     :     0.010104
      dyz     :     0.010103
      dx2y2   :     0.000002
      dxy     :     0.000001
 12 N s       :     3.433014  s :     3.433014
      pz      :     1.508389  p :     3.839524
      px      :     1.165562
      py      :     1.165572
      dz2     :     0.022004  d :     0.042215
      dxz     :     0.010103
      dyz     :     0.010103
      dx2y2   :     0.000002
      dxy     :     0.000001

SPIN
  0 Fes       :     0.004919  s :     0.004919
      pz      :     0.004498  p :     0.013523
      px      :     0.004513
      py      :     0.004512
      dz2     :     0.035938  d :     0.968313
      dxz     :     0.298218
      dyz     :     0.297778
      dx2y2   :     0.035855
      dxy     :     0.300525
      f0      :    -0.000007  f :    -0.000009
      f+1     :    -0.000004
      f-1     :    -0.000004
      f+2     :    -0.000002
      f-2     :     0.000019
      f+3     :    -0.000005
      f-3     :    -0.000005
  1 C s       :    -0.007463  s :    -0.007463
      pz      :    -0.007795  p :    -0.022995
      px      :    -0.007367
      py      :    -0.007833
      dz2     :    -0.000017  d :     0.002370
      dxz     :     0.001194
      dyz     :     0.000015
      dx2y2   :    -0.000029
      dxy     :     0.001206
  2 C s       :    -0.007462  s :    -0.007462
      pz      :    -0.007797  p :    -0.022997
      px      :    -0.007367
      py      :    -0.007834
      dz2     :    -0.000017  d :     0.002370
      dxz     :     0.001194
      dyz     :     0.000015
      dx2y2   :    -0.000029
      dxy     :     0.001206
  3 C s       :    -0.007463  s :    -0.007463
      pz      :    -0.007786  p :    -0.022978
      px      :    -0.007823
      py      :    -0.007370
      dz2     :    -0.000017  d :     0.002363
      dxz     :     0.000015
      dyz     :     0.001189
      dx2y2   :    -0.000029
      dxy     :     0.001204
  4 C s       :    -0.007463  s :    -0.007463
      pz      :    -0.007789  p :    -0.022988
      px      :    -0.007829
      py      :    -0.007369
      dz2     :    -0.000016  d :     0.002365
      dxz     :     0.000015
      dyz     :     0.001190
      dx2y2   :    -0.000029
      dxy     :     0.001205
  5 C s       :    -0.007457  s :    -0.007457
      pz      :    -0.007369  p :    -0.022936
      px      :    -0.007784
      py      :    -0.007784
      dz2     :    -0.000034  d :     0.002355
      dxz     :     0.001194
      dyz     :     0.001191
      dx2y2   :    -0.000011
      dxy     :     0.000015
  6 C s       :    -0.007457  s :    -0.007457
      pz      :    -0.007370  p :    -0.022928
      px      :    -0.007779
      py      :    -0.007779
      dz2     :    -0.000034  d :     0.002353
      dxz     :     0.001192
      dyz     :     0.001191
      dx2y2   :    -0.000011
      dxy     :     0.000015
  7 N s       :     0.000083  s :     0.000083
      pz      :     0.015874  p :     0.030492
      px      :    -0.001400
      py      :     0.016018
      dz2     :    -0.000004  d :    -0.000209
      dxz     :    -0.000096
      dyz     :     0.000000
      dx2y2   :    -0.000013
      dxy     :    -0.000096
  8 N s       :     0.000083  s :     0.000083
      pz      :     0.015874  p :     0.030499
      px      :    -0.001399
      py      :     0.016024
      dz2     :    -0.000004  d :    -0.000209
      dxz     :    -0.000096
      dyz     :     0.000000
      dx2y2   :    -0.000013
      dxy     :    -0.000096
  9 N s       :     0.000082  s :     0.000082
      pz      :     0.015819  p :     0.030408
      px      :     0.015989
      py      :    -0.001400
      dz2     :    -0.000004  d :    -0.000209
      dxz     :     0.000000
      dyz     :    -0.000096
      dx2y2   :    -0.000013
      dxy     :    -0.000096
 10 N s       :     0.000082  s :     0.000082
      pz      :     0.015832  p :     0.030438
      px      :     0.016005
      py      :    -0.001399
      dz2     :    -0.000004  d :    -0.000209
      dxz     :     0.000000
      dyz     :    -0.000096
      dx2y2   :    -0.000013
      dxy     :    -0.000096
 11 N s       :     0.000080  s :     0.000080
      pz      :    -0.001403  p :     0.030311
      px      :     0.015872
      py      :     0.015842
      dz2     :    -0.000018  d :    -0.000208
      dxz     :    -0.000096
      dyz     :    -0.000096
      dx2y2   :    -0.000000
      dxy     :     0.000000
 12 N s       :     0.000080  s :     0.000080
      pz      :    -0.001403  p :     0.030282
      px      :     0.015848
      py      :     0.015837
      dz2     :    -0.000018  d :    -0.000208
      dxz     :    -0.000095
      dyz     :    -0.000095
      dx2y2   :    -0.000000
      dxy     :     0.000000


                      *****************************
                      * MAYER POPULATION ANALYSIS *
                      *****************************

  NA   - Mulliken gross atomic population
  ZA   - Total nuclear charge
  QA   - Mulliken gross atomic charge
  VA   - Mayer's total valence
  BVA  - Mayer's bonded valence
  FA   - Mayer's free valence

  ATOM       NA         ZA         QA         VA         BVA        FA
  0 Fe    27.5730    26.0000    -1.5730     7.9561     7.2245     0.7316
  1 C      6.0171     6.0000    -0.0171     3.9358     3.9346     0.0012
  2 C      6.0171     6.0000    -0.0171     3.9358     3.9346     0.0012
  3 C      6.0173     6.0000    -0.0173     3.9356     3.9345     0.0012
  4 C      6.0173     6.0000    -0.0173     3.9356     3.9345     0.0012
  5 C      6.0172     6.0000    -0.0172     3.9358     3.9347     0.0012
  6 C      6.0172     6.0000    -0.0172     3.9358     3.9346     0.0012
  7 N      7.2206     7.0000    -0.2206     2.9777     2.9764     0.0013
  8 N      7.2206     7.0000    -0.2206     2.9777     2.9764     0.0013
  9 N      7.2207     7.0000    -0.2207     2.9777     2.9765     0.0013
 10 N      7.2207     7.0000    -0.2207     2.9777     2.9765     0.0013
 11 N      7.2206     7.0000    -0.2206     2.9777     2.9764     0.0013
 12 N      7.2206     7.0000    -0.2206     2.9777     2.9764     0.0013

  Mayer bond orders larger than 0.1
B(  0-Fe,  1-C ) :   1.1351 B(  0-Fe,  2-C ) :   1.1351 B(  0-Fe,  3-C ) :   1.1348 
B(  0-Fe,  4-C ) :   1.1348 B(  0-Fe,  5-C ) :   1.1351 B(  0-Fe,  6-C ) :   1.1351 
B(  1-C ,  7-N ) :   2.8492 B(  2-C ,  8-N ) :   2.8492 B(  3-C ,  9-N ) :   2.8493 
B(  4-C , 10-N ) :   2.8493 B(  5-C , 11-N ) :   2.8492 B(  6-C , 12-N ) :   2.8492 


-------
TIMINGS
-------

Total SCF time: 0 days 0 hours 0 min 16 sec 

Total time                  ....      16.408 sec
Sum of individual times     ....      16.247 sec  ( 99.0%)

Fock matrix formation       ....      14.390 sec  ( 87.7%)
  Split-RI-J                ....       7.855 sec  ( 54.6% of F)
  XC integration            ....       6.492 sec  ( 45.1% of F)
    Basis function eval.    ....       1.611 sec  ( 24.8% of XC)
    Density eval.           ....       1.753 sec  ( 27.0% of XC)
    XC-Functional eval.     ....       0.445 sec  (  6.8% of XC)
    XC-Potential eval.      ....       2.561 sec  ( 39.4% of XC)
Diagonalization             ....       0.182 sec  (  1.1%)
Density matrix formation    ....       0.025 sec  (  0.2%)
Population analysis         ....       0.011 sec  (  0.1%)
Initial guess               ....       0.433 sec  (  2.6%)
Orbital Transformation      ....       0.000 sec  (  0.0%)
Orbital Orthonormalization  ....       0.000 sec  (  0.0%)
DIIS solution               ....       0.058 sec  (  0.4%)
Grid generation             ....       1.147 sec  (  7.0%)

-------------------------   --------------------
FINAL SINGLE POINT ENERGY     -1820.354836216935
-------------------------   --------------------


                            ***************************************
                            *     ORCA property calculations      *
                            ***************************************

                                    ---------------------
                                    Active property flags
                                    ---------------------
   (+) Dipole Moment
   (+) Nuclear properties (Hyperfine,Quadrupole)


------------------------------------------------------------------------------
                       ORCA ELECTRIC PROPERTIES CALCULATION
------------------------------------------------------------------------------

Dipole Moment Calculation                       ... on
Quadrupole Moment Calculation                   ... off
Polarizability Calculation                      ... off
GBWName                                         ... moess.gbw
Electron density file                           ... moess.scfp.tmp
The origin for moment calculation is the CENTER OF MASS  = (-0.000007, -0.000010  0.000016)

-------------
DIPOLE MOMENT
-------------
                                X             Y             Z
Electronic contribution:     -0.00004       0.00007       0.00011
Nuclear contribution   :      0.00005       0.00005      -0.00011
                        -----------------------------------------
Total Dipole Moment    :      0.00001       0.00012      -0.00000
                        -----------------------------------------
Magnitude (a.u.)       :      0.00012
Magnitude (Debye)      :      0.00031



--------------------
Rotational spectrum 
--------------------
 
Rotational constants in cm-1:     0.023573     0.023566     0.022550 
Rotational constants in MHz :   706.695549   706.491339   676.027389 

 Dipole components along the rotational axes: 
x,y,z [a.u.] :     0.000074    -0.000054    -0.000079 
x,y,z [Debye]:     0.000187    -0.000136    -0.000201 

 
------------------------------------------------------------------------------
                                ORCA EPR/NMR CALCULATION
------------------------------------------------------------------------------

GBWName                      ... moess.gbw
Electron density file        ... moess.scfp.tmp
Spin density file            ... moess.scfr.tmp
Multiplicity                 ... 2
g-tensor                     ... 0
NMR chemical shifts          ... 0
Number of nuclei for epr/nmr ... 1
   Nucleus:   0Fe
       Hyperfine : Isotope=   57 I=   0.500 P=  17.280
       Quadrupole: Isotope=   57 I=   0.500 Q=   0.160
       Spin-Orbit: Zeff=  13.910
       Ncuelar Spin-Spin: Gn=   0.000
       rho(0)=Y f(grad)=Y a(iso)=N a(dip)=N a(orb)=N sigma(nmr)=N spin-spin(nmr)=all-N,DSO-N,PSO-N,FC-N,SD-N

-----------------------------------------
ELECTRIC AND MAGNETIC HYPERFINE STRUCTURE
-----------------------------------------

 -----------------------------------------------------------
 Nucleus   0Fe: A:ISTP=   57 I=  0.5 P= 17.2798 MHz/au**3
                Q:ISTP=   57 I=  0.5 Q=  0.1600 barn     
 -----------------------------------------------------------
 Raw EFG matrix (all values in a.u.**-3):
             0.0021       0.5629      -0.5641
             0.5629       0.0028      -0.5635
            -0.5641      -0.5635      -0.0049

 V(El)      -0.5925      -0.5993       1.1919
 V(Nuc)      0.0321       0.0327      -0.0648
         ----------   ----------   ----------
 V(Tot)     -0.5604      -0.5666       1.1270 
 Orientation: 
  X       0.6702319    0.4654332   -0.5780667
  Y      -0.7389352    0.3460679   -0.5781105
  Z      -0.0690215    0.8146220    0.5758707

Note: Tensor is right-handed

Moessbauer quadrupole splitting parameter (proper coordinate system)
 e**2qQ  =   42.370 MHz =    3.653 mm/s
 eta     =  0.005
 Delta-EQ=(1/2{e**2qQ}*sqrt(1+1/3*eta**2) =   21.185 MHz =    1.826 mm/s
 RHO(0)=  11190.223028775 a.u.**-3


------------------------------------------------------------------------------- 

Timings for individual modules:

Sum of individual times         ...       16.832 sec (=   0.281 min)
GTO integral calculation        ...        0.207 sec (=   0.003 min)   1.2 %
SCF iterations                  ...       16.437 sec (=   0.274 min)  97.7 %
EPR/NMR calculation             ...        0.188 sec (=   0.003 min)   1.1 %
                             ****ORCA TERMINATED NORMALLY****
TOTAL RUN TIME: 0 days 0 hours 0 minutes 17 seconds 7 msec
