
                                 *****************
                                 * O   R   C   A *
                                 *****************

           --- An Ab Initio, DFT and Semiempirical electronic structure package ---

                  #######################################################
                  #                        -***-                        #
                  #          Department of theory and spectroscopy      #
                  #               Directorship: Frank Neese             #
                  #        Max Planck Institute fuer Kohlenforschung    #
                  #                Kaiser Wilhelm Platz 1               #
                  #                 D-45470 Muelheim/Ruhr               #
                  #                      Germany                        #
                  #                                                     #
                  #                  All rights reserved                #
                  #                        -***-                        #
                  #######################################################


                         Program Version 4.1.2  - RELEASE  -


 With contributions from (in alphabetic order):
   Daniel Aravena         : Magnetic Properties
   Michael Atanasov       : Ab Initio Ligand Field Theory
   Alexander A. Auer      : GIAO ZORA
   Ute Becker             : Parallelization
   Giovanni Bistoni       : ED, Open-shell LED
   Martin Brehm           : Molecular dynamics
   Dmytro Bykov           : SCF Hessian
   Vijay G. Chilkuri      : MRCI spin determinant printing
   Dipayan Datta          : RHF DLPNO-CCSD density
   Achintya Kumar Dutta   : EOM-CC, STEOM-CC
   Dmitry Ganyushin       : Spin-Orbit,Spin-Spin,Magnetic field MRCI
   Miquel Garcia          : C-PCM Hessian
   Yang Guo               : DLPNO-NEVPT2, CIM, IAO-localization
   Andreas Hansen         : Spin unrestricted coupled pair/coupled cluster methods
   Benjamin Helmich-Paris : CASSCF linear response (MC-RPA)
   Lee Huntington         : MR-EOM, pCC
   Robert Izsak           : Overlap fitted RIJCOSX, COSX-SCS-MP3, EOM
   Christian Kollmar      : KDIIS, OOCD, Brueckner-CCSD(T), CCSD density
   Simone Kossmann        : Meta GGA functionals, TD-DFT gradient, OOMP2, MP2 Hessian
   Martin Krupicka        : AUTO-CI
   Lucas Lang             : DCDCAS
   Dagmar Lenk            : GEPOL surface, SMD
   Dimitrios Liakos       : Extrapolation schemes; parallel MDCI
   Dimitrios Manganas     : ROCIS; embedding schemes
   Dimitrios Pantazis     : SARC Basis sets
   Taras Petrenko         : DFT Hessian,TD-DFT gradient, ASA, ECA, R-Raman, ABS, FL, XAS/XES, NRVS
   Peter Pinski           : DLPNO-MP2, DLPNO-MP2 Gradient
   Christoph Reimann      : Effective Core Potentials
   Marius Retegan         : Local ZFS, SOC
   Christoph Riplinger    : Optimizer, TS searches, QM/MM, DLPNO-CCSD(T), (RO)-DLPNO pert. Triples
   Tobias Risthaus        : Range-separated hybrids, TD-DFT gradient, RPA, STAB
   Michael Roemelt        : Restricted open shell CIS
   Masaaki Saitow         : Open-shell DLPNO
   Barbara Sandhoefer     : DKH picture change effects
   Avijit Sen             : IP-ROCIS
   Kantharuban Sivalingam : CASSCF convergence, NEVPT2, FIC-MRCI
   Bernardo de Souza      : ESD, SOC TD-DFT
   Georgi Stoychev        : AutoAux, RI-MP2 NMR
   Willem Van den Heuvel  : Paramagnetic NMR
   Boris Wezisla          : Elementary symmetry handling
   Frank Wennmohs         : Technical directorship


 We gratefully acknowledge several colleagues who have allowed us to
 interface, adapt or use parts of their codes:
   Stefan Grimme, W. Hujo, H. Kruse,             : VdW corrections, initial TS optimization,
                  C. Bannwarth                     DFT functionals, gCP, sTDA/sTD-DF
   Ed Valeev                                     : LibInt (2-el integral package), F12 methods
   Garnet Chan, S. Sharma, J. Yang, R. Olivares  : DMRG
   Ulf Ekstrom                                   : XCFun DFT Library
   Mihaly Kallay                                 : mrcc  (arbitrary order and MRCC methods)
   Andreas Klamt, Michael Diedenhofen            : otool_cosmo (COSMO solvation model)
   Jiri Pittner, Ondrej Demel                    : Mk-CCSD
   Frank Weinhold                                : gennbo (NPA and NBO analysis)
   Christopher J. Cramer and Donald G. Truhlar   : smd solvation model
   Lars Goerigk                                  : TD-DFT with DH, B97 family of functionals
   V. Asgeirsson, H. Jonsson                     : NEB implementation
   FAccTs GmbH                                   : IRC, NEB, NEB-TS, Multilevel


 Your calculation uses the libint2 library for the computation of 2-el integrals
 For citations please refer to: http://libint.valeyev.net

 This ORCA versions uses:
   CBLAS   interface :  Fast vector & matrix operations
   LAPACKE interface :  Fast linear algebra routines
   SCALAPACK package :  Parallel linear algebra routines




***************************************
The coordinates will be read from file: geom.xyz
***************************************


----- Orbital basis set information -----
Your calculation utilizes the basis: def2-SVP
   F. Weigend and R. Ahlrichs, Phys. Chem. Chem. Phys. 7, 3297 (2005).

----- AuxJ basis set information -----
Your calculation utilizes the auxiliary basis: def2/J
   F. Weigend, Phys. Chem. Chem. Phys. 8, 1057 (2006).

================================================================================
                                        WARNINGS
                       Please study these warnings very carefully!
================================================================================


WARNING: your system is open-shell and RHF/RKS was chosen
  ===> : WILL SWITCH to UHF/UKS


INFO   : the flag for use of LIBINT has been found!

================================================================================
                                       INPUT FILE
================================================================================
NAME = moess.inp
|  1> ! bp86 def2-svp
|  2> 
|  3> * xyzfile -2 5 geom.xyz
|  4> 
|  5> %eprnmr
|  6> nuclei = all Fe {fgrad, rho}
|  7> end
|  8> 
|  9> 
| 10>                          ****END OF INPUT****
================================================================================

                       ****************************
                       * Single Point Calculation *
                       ****************************

---------------------------------
CARTESIAN COORDINATES (ANGSTROEM)
---------------------------------
  Fe    -0.005543   -0.010542    0.000078
  Cl     2.340289   -0.142823    0.000187
  Cl    -0.915720    2.154368   -0.000255
  Cl    -0.709682   -1.000364   -2.005230
  Cl    -0.709344   -1.000639    2.005220

----------------------------
CARTESIAN COORDINATES (A.U.)
----------------------------
  NO LB      ZA    FRAG     MASS         X           Y           Z
   0 Fe   26.0000    0    55.850   -0.010475   -0.019921    0.000147
   1 Cl   17.0000    0    35.453    4.422505   -0.269896    0.000353
   2 Cl   17.0000    0    35.453   -1.730460    4.071166   -0.000482
   3 Cl   17.0000    0    35.453   -1.341105   -1.890414   -3.789336
   4 Cl   17.0000    0    35.453   -1.340466   -1.890934    3.789317

--------------------------------
INTERNAL COORDINATES (ANGSTROEM)
--------------------------------
 Fe     0   0   0     0.000000000000     0.00000000     0.00000000
 Cl     1   0   0     2.349558691982     0.00000000     0.00000000
 Cl     1   2   0     2.348458556227   116.03046272     0.00000000
 Cl     1   2   3     2.344529696521   106.02918450   117.13170340
 Cl     1   2   3     2.344402345412   106.01637344   242.84579920

---------------------------
INTERNAL COORDINATES (A.U.)
---------------------------
 Fe     0   0   0     0.000000000000     0.00000000     0.00000000
 Cl     1   0   0     4.440022463419     0.00000000     0.00000000
 Cl     1   2   0     4.437943508134   116.03046272     0.00000000
 Cl     1   2   3     4.430519039270   106.02918450   117.13170340
 Cl     1   2   3     4.430278380552   106.01637344   242.84579920

---------------------
BASIS SET INFORMATION
---------------------
There are 2 groups of distinct atoms

 Group   1 Type Fe  : 14s9p5d1f contracted to 5s3p2d1f pattern {63311/531/41/1}
 Group   2 Type Cl  : 10s7p1d contracted to 4s3p1d pattern {5311/511/1}

Atom   0Fe   basis set group =>   1
Atom   1Cl   basis set group =>   2
Atom   2Cl   basis set group =>   2
Atom   3Cl   basis set group =>   2
Atom   4Cl   basis set group =>   2
-------------------------------
AUXILIARY BASIS SET INFORMATION
-------------------------------
There are 2 groups of distinct atoms

 Group   1 Type Fe  : 19s5p5d3f3g contracted to 8s5p5d2f3g pattern {121111111/11111/11111/21/111}
 Group   2 Type Cl  : 14s5p5d2f1g contracted to 8s4p3d1f1g pattern {71111111/2111/311/2/1}

Atom   0Fe   basis set group =>   1
Atom   1Cl   basis set group =>   2
Atom   2Cl   basis set group =>   2
Atom   3Cl   basis set group =>   2
Atom   4Cl   basis set group =>   2
------------------------------------------------------------------------------
                           ORCA GTO INTEGRAL CALCULATION
                           -- RI-GTO INTEGRALS CHOSEN --
------------------------------------------------------------------------------

                         BASIS SET STATISTICS AND STARTUP INFO

Gaussian basis set:
 # of primitive gaussian shells          ...  101
 # of primitive gaussian functions       ...  217
 # of contracted shells                  ...   43
 # of contracted basis functions         ...  103
 Highest angular momentum                ...    3
 Maximum contraction depth               ...    6
Auxiliary gaussian basis set:
 # of primitive gaussian shells          ...  143
 # of primitive gaussian functions       ...  415
 # of contracted shells                  ...   91
 # of contracted aux-basis functions     ...  293
 Highest angular momentum                ...    4
 Maximum contraction depth               ...   12
Ratio of auxiliary to basis functions    ...  2.84
Integral package used                  ... LIBINT
 One Electron integrals                  ... done
 Ordering auxiliary basis shells         ... done
 Integral threshhold             Thresh  ...  1.000e-10
 Primitive cut-off               TCut    ...  1.000e-11
 Pre-screening matrix                    ... done
 Shell pair data                         ... 
 Ordering of the shell pairs             ... done (   0.000 sec) 808 of 946 pairs
 Determination of significant pairs      ... done (   0.000 sec)
 Creation of shell pair data             ... done (   0.000 sec)
 Storage of shell pair data              ... done (   0.000 sec)
 Shell pair data done in (   0.001 sec)
 Computing two index integrals           ... done
 Cholesky decomposition of the V-matrix  ... done


Timings:
 Total evaluation time                   ...   0.161 sec (  0.003 min)
 One electron matrix time                ...   0.006 sec (  0.000 min) =  3.9%
 Schwartz matrix evaluation time         ...   0.116 sec (  0.002 min) = 72.0%
 Two index repulsion integral time       ...   0.003 sec (  0.000 min) =  1.8%
 Cholesky decomposition of V             ...   0.015 sec (  0.000 min) =  9.1%
 Three index repulsion integral time     ...   0.000 sec (  0.000 min) =  0.0%

-------------------------------------------------------------------------------
                                 ORCA SCF
-------------------------------------------------------------------------------

------------
SCF SETTINGS
------------
Hamiltonian:
 Density Functional     Method          .... DFT(GTOs)
 Exchange Functional    Exchange        .... B88
   X-Alpha parameter    XAlpha          ....  0.666667
   Becke's b parameter  XBeta           ....  0.004200
 Correlation Functional Correlation     .... P86
 LDA part of GGA corr.  LDAOpt          .... PW91-LDA
 Gradients option       PostSCFGGA      .... off
   Density functional embedding theory  .... OFF
 RI-approximation to the Coulomb term is turned on
   Number of auxiliary basis functions  .... 293


General Settings:
 Integral files         IntName         .... moess
 Hartree-Fock type      HFTyp           .... UHF
 Total Charge           Charge          ....   -2
 Multiplicity           Mult            ....    5
 Number of Electrons    NEL             ....   96
 Basis Dimension        Dim             ....  103
 Nuclear Repulsion      ENuc            ....    638.4620901932 Eh

Convergence Acceleration:
 DIIS                   CNVDIIS         .... on
   Start iteration      DIISMaxIt       ....    12
   Startup error        DIISStart       ....  0.200000
   # of expansion vecs  DIISMaxEq       ....     5
   Bias factor          DIISBfac        ....   1.050
   Max. coefficient     DIISMaxC        ....  10.000
 Newton-Raphson         CNVNR           .... off
 SOSCF                  CNVSOSCF        .... off
 Level Shifting         CNVShift        .... on
   Level shift para.    LevelShift      ....    0.2500
   Turn off err/grad.   ShiftErr        ....    0.0010
 Zerner damping         CNVZerner       .... off
 Static damping         CNVDamp         .... on
   Fraction old density DampFac         ....    0.7000
   Max. Damping (<1)    DampMax         ....    0.9800
   Min. Damping (>=0)   DampMin         ....    0.0000
   Turn off err/grad.   DampErr         ....    0.1000
 Fernandez-Rico         CNVRico         .... off

SCF Procedure:
 Maximum # iterations   MaxIter         ....   125
 SCF integral mode      SCFMode         .... Direct
   Integral package                     .... LIBINT
 Reset frequency        DirectResetFreq ....    20
 Integral Threshold     Thresh          ....  1.000e-10 Eh
 Primitive CutOff       TCut            ....  1.000e-11 Eh

Convergence Tolerance:
 Convergence Check Mode ConvCheckMode   .... Total+1el-Energy
 Convergence forced     ConvForced      .... 0
 Energy Change          TolE            ....  1.000e-06 Eh
 1-El. energy change                    ....  1.000e-03 Eh
 DIIS Error             TolErr          ....  1.000e-06


Diagonalization of the overlap matrix:
Smallest eigenvalue                        ... 4.141e-02
Time for diagonalization                   ...    0.057 sec
Threshold for overlap eigenvalues          ... 1.000e-08
Number of eigenvalues below threshold      ... 0
Time for construction of square roots      ...    0.002 sec
Total time needed                          ...    0.059 sec

-------------------
DFT GRID GENERATION
-------------------

General Integration Accuracy     IntAcc      ...  4.340
Radial Grid Type                 RadialGrid  ... Gauss-Chebyshev
Angular Grid (max. acc.)         AngularGrid ... Lebedev-110
Angular grid pruning method      GridPruning ... 3 (G Style)
Weight generation scheme         WeightScheme... Becke
Basis function cutoff            BFCut       ...    1.0000e-10
Integration weight cutoff        WCut        ...    1.0000e-14
Grids for H and He will be reduced by one unit

# of grid points (after initial pruning)     ...  10288 (   0.0 sec)
# of grid points (after weights+screening)   ...  10158 (   0.0 sec)
nearest neighbour list constructed           ...    0.0 sec
Grid point re-assignment to atoms done       ...    0.0 sec
Grid point division into batches done        ...    0.0 sec
Reduced shell lists constructed in    0.1 sec

Total number of grid points                  ...    10158
Total number of batches                      ...      160
Average number of points per batch           ...       63
Average number of grid points per atom       ...     2032
Average number of shells per batch           ...    24.48 (56.94%)
Average number of basis functions per batch  ...    62.71 (60.88%)
Average number of large shells per batch     ...    18.90 (77.19%)
Average number of large basis fcns per batch ...    47.09 (75.09%)
Maximum spatial batch extension              ...  26.04, 25.64, 30.38 au
Average spatial batch extension              ...   5.35,  4.87,  4.73 au

Time for grid setup =    0.081 sec

------------------------------
INITIAL GUESS: MODEL POTENTIAL
------------------------------
Loading Hartree-Fock densities                     ... done
Calculating cut-offs                               ... done
Setting up the integral package                    ... done
Initializing the effective Hamiltonian             ... done
Starting the Coulomb interaction                   ... done (   0.0 sec)
Reading the grid                                   ... done
Mapping shells                                     ... done
Starting the XC term evaluation                    ... done (   0.1 sec)
  promolecular density results
     # of electrons  =     94.000386176
     EX              =   -164.439253801
     EC              =     -4.339511660
     EX+EC           =   -168.778765461
Transforming the Hamiltonian                       ... done (   0.0 sec)
Diagonalizing the Hamiltonian                      ... done (   0.0 sec)
Back transforming the eigenvectors                 ... done (   0.0 sec)
Now organizing SCF variables                       ... done
                      ------------------
                      INITIAL GUESS DONE (   0.2 sec)
                      ------------------
--------------
SCF ITERATIONS
--------------
ITER       Energy         Delta-E        Max-DP      RMS-DP      [F,P]     Damp
               ***  Starting incremental Fock matrix formation  ***
  0  -3104.2427978643   0.000000000000 0.03640249  0.00151369  0.0855293 0.7000
  1  -3104.2889493295  -0.046151465191 0.02648536  0.00110370  0.0536789 0.7000
                               ***Turning on DIIS***
  2  -3104.3100790495  -0.021129720033 0.04987794  0.00215220  0.0307839 0.0000
  3  -3104.3467822774  -0.036703227853 0.02620181  0.00081364  0.0191029 0.0000
  4  -3104.3519185955  -0.005136318096 0.00657543  0.00025069  0.0222663 0.0000
  5  -3104.3525913473  -0.000672751831 0.00435416  0.00008560  0.0062380 0.0000
  6  -3104.3526766581  -0.000085310733 0.00711782  0.00010199  0.0005185 0.0000
  7  -3104.3526847270  -0.000008068952 0.00082992  0.00001993  0.0006748 0.0000
  8  -3104.3526879352  -0.000003208182 0.00097298  0.00001407  0.0001310 0.0000
  9  -3104.3526885428  -0.000000607656 0.00102478  0.00001470  0.0000949 0.0000
 10  -3104.3526889027  -0.000000359837 0.00081674  0.00001337  0.0000697 0.0000
                 **** Energy Check signals convergence ****

               *****************************************************
               *                     SUCCESS                       *
               *           SCF CONVERGED AFTER  11 CYCLES          *
               *****************************************************

Setting up the final grid:

General Integration Accuracy     IntAcc      ...  4.670
Radial Grid Type                 RadialGrid  ... Gauss-Chebyshev
Angular Grid (max. acc.)         AngularGrid ... Lebedev-302
Angular grid pruning method      GridPruning ... 3 (G Style)
Weight generation scheme         WeightScheme... Becke
Basis function cutoff            BFCut       ...    1.0000e-10
Integration weight cutoff        WCut        ...    1.0000e-14
Grids for H and He will be reduced by one unit

# of grid points (after initial pruning)     ...  36592 (   0.0 sec)
# of grid points (after weights+screening)   ...  36052 (   0.0 sec)
nearest neighbour list constructed           ...    0.0 sec
Grid point re-assignment to atoms done       ...    0.0 sec
Grid point division into batches done        ...    0.2 sec
Reduced shell lists constructed in    0.3 sec

Total number of grid points                  ...    36052
Total number of batches                      ...      567
Average number of points per batch           ...       63
Average number of grid points per atom       ...     7210
Average number of shells per batch           ...    21.50 (50.01%)
Average number of basis functions per batch  ...    53.88 (52.31%)
Average number of large shells per batch     ...    16.67 (77.54%)
Average number of large basis fcns per batch ...    40.79 (75.71%)
Maximum spatial batch extension              ...  19.29, 19.50, 19.50 au
Average spatial batch extension              ...   3.46,  3.39,  3.24 au

Final grid set up in    0.3 sec
Final integration                            ... done (   0.2 sec)
Change in XC energy                          ...    -0.001891626
Integrated number of electrons               ...    96.000012740
Previous integrated no of electrons          ...    96.000368445

----------------
TOTAL SCF ENERGY
----------------

Total Energy       :        -3104.35458086 Eh          -84473.78271 eV

Components:
Nuclear Repulsion  :          638.46209019 Eh           17373.43672 eV
Electronic Energy  :        -3742.81667106 Eh         -101847.21943 eV
One Electron Energy:        -5600.13959793 Eh         -152387.54569 eV
Two Electron Energy:         1857.32292687 Eh           50540.32626 eV

Virial components:
Potential Energy   :        -6202.02612853 Eh         -168765.71084 eV
Kinetic Energy     :         3097.67154767 Eh           84291.92813 eV
Virial Ratio       :            2.00215744


DFT components:
N(Alpha)           :       50.000009727091 electrons
N(Beta)            :       46.000003013298 electrons
N(Total)           :       96.000012740390 electrons
E(X)               :     -165.328748963307 Eh       
E(C)               :       -4.430304630822 Eh       
E(XC)              :     -169.759053594128 Eh       
DFET-embed. en.    :        0.000000000000 Eh       

---------------
SCF CONVERGENCE
---------------

  Last Energy change         ...   -3.3560e-07  Tolerance :   1.0000e-06
  Last MAX-Density change    ...    3.0329e-04  Tolerance :   1.0000e-05
  Last RMS-Density change    ...    5.0028e-06  Tolerance :   1.0000e-06
  Last DIIS Error            ...    6.9872e-05  Tolerance :   1.0000e-06

             **** THE GBW FILE WAS UPDATED (moess.gbw) ****
             **** DENSITY FILE WAS UPDATED (moess.scfp.tmp) ****
             **** ENERGY FILE WAS UPDATED (moess.en.tmp) ****
----------------------
UHF SPIN CONTAMINATION
----------------------

Warning: in a DFT calculation there is little theoretical justification to 
         calculate <S**2> as in Hartree-Fock theory. We will do it anyways
         but you should keep in mind that the values have only limited relevance

Expectation value of <S**2>     :     6.005317
Ideal value S*(S+1) for S=2.0   :     6.000000
Deviation                       :     0.005317

----------------
ORBITAL ENERGIES
----------------
                 SPIN UP ORBITALS
  NO   OCC          E(Eh)            E(eV) 
   0   1.0000    -254.446911     -6923.8524 
   1   1.0000    -100.297031     -2729.2210 
   2   1.0000    -100.296962     -2729.2191 
   3   1.0000    -100.295849     -2729.1888 
   4   1.0000    -100.295757     -2729.1863 
   5   1.0000     -29.226543      -795.2947 
   6   1.0000     -25.179773      -685.1765 
   7   1.0000     -25.179112      -685.1585 
   8   1.0000     -25.151322      -684.4023 
   9   1.0000      -8.779975      -238.9153 
  10   1.0000      -8.779911      -238.9135 
  11   1.0000      -8.778728      -238.8813 
  12   1.0000      -8.778624      -238.8785 
  13   1.0000      -6.606229      -179.7646 
  14   1.0000      -6.606209      -179.7641 
  15   1.0000      -6.605021      -179.7317 
  16   1.0000      -6.604896      -179.7283 
  17   1.0000      -6.602718      -179.6691 
  18   1.0000      -6.602698      -179.6685 
  19   1.0000      -6.602363      -179.6594 
  20   1.0000      -6.602345      -179.6589 
  21   1.0000      -6.601434      -179.6342 
  22   1.0000      -6.601424      -179.6339 
  23   1.0000      -6.601183      -179.6273 
  24   1.0000      -6.601068      -179.6242 
  25   1.0000      -2.985981       -81.2527 
  26   1.0000      -1.821103       -49.5547 
  27   1.0000      -1.819632       -49.5147 
  28   1.0000      -1.762266       -47.9537 
  29   1.0000      -0.343312        -9.3420 
  30   1.0000      -0.337165        -9.1747 
  31   1.0000      -0.335746        -9.1361 
  32   1.0000      -0.335219        -9.1218 
  33   1.0000       0.021459         0.5839 
  34   1.0000       0.031219         0.8495 
  35   1.0000       0.041694         1.1346 
  36   1.0000       0.042766         1.1637 
  37   1.0000       0.050453         1.3729 
  38   1.0000       0.074006         2.0138 
  39   1.0000       0.074246         2.0203 
  40   1.0000       0.077601         2.1116 
  41   1.0000       0.078521         2.1367 
  42   1.0000       0.100991         2.7481 
  43   1.0000       0.101590         2.7644 
  44   1.0000       0.102556         2.7907 
  45   1.0000       0.117626         3.2008 
  46   1.0000       0.143717         3.9107 
  47   1.0000       0.145807         3.9676 
  48   1.0000       0.146488         3.9861 
  49   1.0000       0.161755         4.4016 
  50   0.0000       0.313940         8.5427 
  51   0.0000       0.413613        11.2550 
  52   0.0000       0.474429        12.9099 
  53   0.0000       0.491481        13.3739 
  54   0.0000       0.494313        13.4509 
  55   0.0000       0.813823        22.1452 
  56   0.0000       0.814909        22.1748 
  57   0.0000       0.825671        22.4677 
  58   0.0000       0.978762        26.6335 
  59   0.0000       0.979051        26.6413 
  60   0.0000       0.986380        26.8408 
  61   0.0000       0.995032        27.0762 
  62   0.0000       0.995815        27.0975 
  63   0.0000       1.009850        27.4794 
  64   0.0000       1.087600        29.5951 
  65   0.0000       1.088097        29.6086 
  66   0.0000       1.088845        29.6290 
  67   0.0000       1.096051        29.8251 
  68   0.0000       1.100687        29.9512 
  69   0.0000       1.100705        29.9517 
  70   0.0000       1.101341        29.9690 
  71   0.0000       1.101412        29.9709 
  72   0.0000       1.102077        29.9890 
  73   0.0000       1.102334        29.9960 
  74   0.0000       1.102583        30.0028 
  75   0.0000       1.102876        30.0108 
  76   0.0000       1.110768        30.2255 
  77   0.0000       1.111554        30.2469 
  78   0.0000       1.111652        30.2496 
  79   0.0000       1.136170        30.9168 
  80   0.0000       1.148497        31.2522 
  81   0.0000       1.199940        32.6520 
  82   0.0000       1.202833        32.7307 
  83   0.0000       1.220240        33.2044 
  84   0.0000       1.232646        33.5420 
  85   0.0000       1.232789        33.5459 
  86   0.0000       1.240533        33.7566 
  87   0.0000       1.358808        36.9750 
  88   0.0000       1.363813        37.1112 
  89   0.0000       1.371731        37.3267 
  90   0.0000       1.461074        39.7579 
  91   0.0000       1.461371        39.7659 
  92   0.0000       1.602690        43.6114 
  93   0.0000       1.803634        49.0794 
  94   0.0000       1.804386        49.0998 
  95   0.0000       1.809957        49.2514 
  96   0.0000       4.262218       115.9809 
  97   0.0000       4.262733       115.9949 
  98   0.0000       4.265684       116.0752 
  99   0.0000       4.297746       116.9476 
 100   0.0000       4.300213       117.0147 
 101   0.0000       4.300758       117.0296 
 102   0.0000       4.323376       117.6451 

                 SPIN DOWN ORBITALS
  NO   OCC          E(Eh)            E(eV) 
   0   1.0000    -254.446307     -6923.8360 
   1   1.0000    -100.296506     -2729.2067 
   2   1.0000    -100.296437     -2729.2048 
   3   1.0000    -100.295322     -2729.1745 
   4   1.0000    -100.295233     -2729.1720 
   5   1.0000     -29.164105      -793.5956 
   6   1.0000     -25.128620      -683.7845 
   7   1.0000     -25.128235      -683.7740 
   8   1.0000     -25.111707      -683.3243 
   9   1.0000      -8.779460      -238.9013 
  10   1.0000      -8.779396      -238.8995 
  11   1.0000      -8.778211      -238.8673 
  12   1.0000      -8.778111      -238.8645 
  13   1.0000      -6.605422      -179.7427 
  14   1.0000      -6.605402      -179.7421 
  15   1.0000      -6.604194      -179.7093 
  16   1.0000      -6.604080      -179.7061 
  17   1.0000      -6.601984      -179.6491 
  18   1.0000      -6.601963      -179.6486 
  19   1.0000      -6.601815      -179.6445 
  20   1.0000      -6.601796      -179.6440 
  21   1.0000      -6.600700      -179.6142 
  22   1.0000      -6.600692      -179.6140 
  23   1.0000      -6.600643      -179.6126 
  24   1.0000      -6.600534      -179.6096 
  25   1.0000      -2.839496       -77.2666 
  26   1.0000      -1.665806       -45.3289 
  27   1.0000      -1.665298       -45.3151 
  28   1.0000      -1.641460       -44.6664 
  29   1.0000      -0.339871        -9.2484 
  30   1.0000      -0.333920        -9.0864 
  31   1.0000      -0.332497        -9.0477 
  32   1.0000      -0.331997        -9.0341 
  33   1.0000       0.031891         0.8678 
  34   1.0000       0.061684         1.6785 
  35   1.0000       0.062324         1.6959 
  36   1.0000       0.062917         1.7121 
  37   1.0000       0.081212         2.2099 
  38   1.0000       0.085859         2.3363 
  39   1.0000       0.087154         2.3716 
  40   1.0000       0.087215         2.3732 
  41   1.0000       0.087535         2.3820 
  42   1.0000       0.103485         2.8160 
  43   1.0000       0.103899         2.8272 
  44   1.0000       0.105378         2.8675 
  45   1.0000       0.225673         6.1409 
  46   0.0000       0.230995         6.2857 
  47   0.0000       0.244089         6.6420 
  48   0.0000       0.269689         7.3386 
  49   0.0000       0.270448         7.3593 
  50   0.0000       0.316683         8.6174 
  51   0.0000       0.450173        12.2498 
  52   0.0000       0.498855        13.5745 
  53   0.0000       0.524610        14.2754 
  54   0.0000       0.527004        14.3405 
  55   0.0000       0.817708        22.2510 
  56   0.0000       0.818770        22.2799 
  57   0.0000       0.828812        22.5531 
  58   0.0000       0.983778        26.7700 
  59   0.0000       1.004185        27.3253 
  60   0.0000       1.005272        27.3548 
  61   0.0000       1.014747        27.6127 
  62   0.0000       1.015526        27.6339 
  63   0.0000       1.020560        27.7709 
  64   0.0000       1.090637        29.6777 
  65   0.0000       1.091274        29.6951 
  66   0.0000       1.091760        29.7083 
  67   0.0000       1.099513        29.9193 
  68   0.0000       1.103603        30.0306 
  69   0.0000       1.103651        30.0319 
  70   0.0000       1.104268        30.0487 
  71   0.0000       1.104331        30.0504 
  72   0.0000       1.104947        30.0671 
  73   0.0000       1.105233        30.0749 
  74   0.0000       1.105462        30.0811 
  75   0.0000       1.105752        30.0890 
  76   0.0000       1.114151        30.3176 
  77   0.0000       1.115561        30.3559 
  78   0.0000       1.115562        30.3560 
  79   0.0000       1.140511        31.0349 
  80   0.0000       1.151985        31.3471 
  81   0.0000       1.202704        32.7272 
  82   0.0000       1.205415        32.8010 
  83   0.0000       1.222558        33.2675 
  84   0.0000       1.237017        33.6609 
  85   0.0000       1.237077        33.6626 
  86   0.0000       1.244992        33.8780 
  87   0.0000       1.387526        37.7565 
  88   0.0000       1.392157        37.8825 
  89   0.0000       1.392680        37.8967 
  90   0.0000       1.485619        40.4257 
  91   0.0000       1.520931        41.3866 
  92   0.0000       1.621770        44.1306 
  93   0.0000       1.855795        50.4988 
  94   0.0000       1.855880        50.5011 
  95   0.0000       1.856918        50.5293 
  96   0.0000       4.395106       119.5969 
  97   0.0000       4.395819       119.6163 
  98   0.0000       4.411320       120.0381 
  99   0.0000       4.411619       120.0463 
 100   0.0000       4.416175       120.1702 
 101   0.0000       4.429142       120.5231 
 102   0.0000       4.455319       121.2354 

                    ********************************
                    * MULLIKEN POPULATION ANALYSIS *
                    ********************************

--------------------------------------------
MULLIKEN ATOMIC CHARGES AND SPIN POPULATIONS
--------------------------------------------
   0 Fe:    0.492964    3.759922
   1 Cl:   -0.624561    0.059746
   2 Cl:   -0.624288    0.060368
   3 Cl:   -0.622078    0.059980
   4 Cl:   -0.622037    0.059984
Sum of atomic charges         :   -2.0000000
Sum of atomic spin populations:    4.0000000

-----------------------------------------------------
MULLIKEN REDUCED ORBITAL CHARGES AND SPIN POPULATIONS
-----------------------------------------------------
CHARGE
  0 Fes       :     6.501777  s :     6.501777
      pz      :     4.228522  p :    12.659112
      px      :     4.219547
      py      :     4.211044
      dz2     :     1.341984  d :     6.345637
      dxz     :     1.069728
      dyz     :     1.073301
      dx2y2   :     1.150035
      dxy     :     1.710588
      f0      :     0.000072  f :     0.000510
      f+1     :     0.000075
      f-1     :     0.000089
      f+2     :     0.000048
      f-2     :     0.000055
      f+3     :     0.000103
      f-3     :     0.000069
  1 Cls       :     5.958807  s :     5.958807
      pz      :     3.951430  p :    11.658981
      px      :     3.745737
      py      :     3.961813
      dz2     :     0.000802  d :     0.006773
      dxz     :     0.001335
      dyz     :     0.000036
      dx2y2   :     0.002435
      dxy     :     0.002165
  2 Cls       :     5.958794  s :     5.958794
      pz      :     3.951508  p :    11.658724
      px      :     3.931393
      py      :     3.775823
      dz2     :     0.000793  d :     0.006770
      dxz     :     0.000216
      dyz     :     0.001169
      dx2y2   :     0.002475
      dxy     :     0.002116
  3 Cls       :     5.958385  s :     5.958385
      pz      :     3.805096  p :    11.656817
      px      :     3.934276
      py      :     3.917445
      dz2     :     0.002331  d :     0.006876
      dxz     :     0.001544
      dyz     :     0.002015
      dx2y2   :     0.000422
      dxy     :     0.000564
  4 Cls       :     5.958375  s :     5.958375
      pz      :     3.805098  p :    11.656782
      px      :     3.934177
      py      :     3.917507
      dz2     :     0.002332  d :     0.006879
      dxz     :     0.001541
      dyz     :     0.002020
      dx2y2   :     0.000423
      dxy     :     0.000563

SPIN
  0 Fes       :     0.052314  s :     0.052314
      pz      :     0.043095  p :     0.121347
      px      :     0.040523
      py      :     0.037729
      dz2     :     0.643073  d :     3.586193
      dxz     :     0.922887
      dyz     :     0.911708
      dx2y2   :     0.828505
      dxy     :     0.280021
      f0      :    -0.000000  f :     0.000068
      f+1     :     0.000011
      f-1     :     0.000017
      f+2     :     0.000004
      f-2     :     0.000001
      f+3     :     0.000038
      f-3     :    -0.000002
  1 Cls       :    -0.000658  s :    -0.000658
      pz      :     0.023661  p :     0.058141
      px      :     0.023529
      py      :     0.010951
      dz2     :     0.000284  d :     0.002263
      dxz     :     0.000850
      dyz     :     0.000018
      dx2y2   :     0.000844
      dxy     :     0.000268
  2 Cls       :    -0.000671  s :    -0.000671
      pz      :     0.023660  p :     0.058752
      px      :     0.011313
      py      :     0.023779
      dz2     :     0.000289  d :     0.002286
      dxz     :     0.000160
      dyz     :     0.000705
      dx2y2   :     0.000438
      dxy     :     0.000695
  3 Cls       :    -0.000732  s :    -0.000732
      pz      :     0.016886  p :     0.058375
      px      :     0.021593
      py      :     0.019896
      dz2     :     0.000625  d :     0.002337
      dxz     :     0.000656
      dyz     :     0.000668
      dx2y2   :     0.000215
      dxy     :     0.000173
  4 Cls       :    -0.000734  s :    -0.000734
      pz      :     0.016881  p :     0.058379
      px      :     0.021691
      py      :     0.019807
      dz2     :     0.000625  d :     0.002338
      dxz     :     0.000658
      dyz     :     0.000666
      dx2y2   :     0.000214
      dxy     :     0.000174


                     *******************************
                     * LOEWDIN POPULATION ANALYSIS *
                     *******************************

-------------------------------------------
LOEWDIN ATOMIC CHARGES AND SPIN POPULATIONS
-------------------------------------------
   0 Fe:    0.011415    3.695388
   1 Cl:   -0.504882    0.075716
   2 Cl:   -0.504088    0.076490
   3 Cl:   -0.501257    0.076199
   4 Cl:   -0.501189    0.076208

----------------------------------------------------
LOEWDIN REDUCED ORBITAL CHARGES AND SPIN POPULATIONS
----------------------------------------------------
CHARGE
  0 Fes       :     6.573697  s :     6.573697
      pz      :     4.327115  p :    12.937413
      px      :     4.311809
      py      :     4.298489
      dz2     :     1.376023  d :     6.476656
      dxz     :     1.088887
      dyz     :     1.100154
      dx2y2   :     1.182800
      dxy     :     1.728791
      f0      :     0.000118  f :     0.000818
      f+1     :     0.000126
      f-1     :     0.000140
      f+2     :     0.000082
      f-2     :     0.000094
      f+3     :     0.000152
      f-3     :     0.000105
  1 Cls       :     5.887338  s :     5.887338
      pz      :     3.944333  p :    11.610781
      px      :     3.711646
      py      :     3.954802
      dz2     :     0.000774  d :     0.006762
      dxz     :     0.001372
      dyz     :     0.000035
      dx2y2   :     0.002371
      dxy     :     0.002210
  2 Cls       :     5.887103  s :     5.887103
      pz      :     3.944349  p :    11.610226
      px      :     3.919818
      py      :     3.746059
      dz2     :     0.000769  d :     0.006759
      dxz     :     0.000228
      dyz     :     0.001191
      dx2y2   :     0.002494
      dxy     :     0.002077
  3 Cls       :     5.886209  s :     5.886209
      pz      :     3.777134  p :    11.608180
      px      :     3.924946
      py      :     3.906100
      dz2     :     0.002294  d :     0.006868
      dxz     :     0.001556
      dyz     :     0.002017
      dx2y2   :     0.000424
      dxy     :     0.000577
  4 Cls       :     5.886180  s :     5.886180
      pz      :     3.777136  p :    11.608137
      px      :     3.924845
      py      :     3.906156
      dz2     :     0.002295  d :     0.006871
      dxz     :     0.001553
      dyz     :     0.002021
      dx2y2   :     0.000425
      dxy     :     0.000577

SPIN
  0 Fes       :     0.028456  s :     0.028456
      pz      :     0.033288  p :     0.098730
      px      :     0.033025
      py      :     0.032418
      dz2     :     0.638153  d :     3.568144
      dxz     :     0.919589
      dyz     :     0.907945
      dx2y2   :     0.824526
      dxy     :     0.277931
      f0      :    -0.000001  f :     0.000057
      f+1     :     0.000009
      f-1     :     0.000012
      f+2     :     0.000004
      f-2     :     0.000001
      f+3     :     0.000035
      f-3     :    -0.000002
  1 Cls       :     0.001287  s :     0.001287
      pz      :     0.025373  p :     0.071655
      px      :     0.034278
      py      :     0.012004
      dz2     :     0.000371  d :     0.002773
      dxz     :     0.000949
      dyz     :     0.000019
      dx2y2   :     0.001098
      dxy     :     0.000337
  2 Cls       :     0.001298  s :     0.001298
      pz      :     0.025388  p :     0.072389
      px      :     0.013614
      py      :     0.033387
      dz2     :     0.000377  d :     0.002803
      dxz     :     0.000178
      dyz     :     0.000788
      dx2y2   :     0.000624
      dxy     :     0.000836
  3 Cls       :     0.001248  s :     0.001248
      pz      :     0.024843  p :     0.072090
      px      :     0.024084
      py      :     0.023163
      dz2     :     0.000763  d :     0.002862
      dxz     :     0.000788
      dyz     :     0.000853
      dx2y2   :     0.000241
      dxy     :     0.000215
  4 Cls       :     0.001248  s :     0.001248
      pz      :     0.024839  p :     0.072098
      px      :     0.024189
      py      :     0.023070
      dz2     :     0.000763  d :     0.002863
      dxz     :     0.000791
      dyz     :     0.000852
      dx2y2   :     0.000241
      dxy     :     0.000216


                      *****************************
                      * MAYER POPULATION ANALYSIS *
                      *****************************

  NA   - Mulliken gross atomic population
  ZA   - Total nuclear charge
  QA   - Mulliken gross atomic charge
  VA   - Mayer's total valence
  BVA  - Mayer's bonded valence
  FA   - Mayer's free valence

  ATOM       NA         ZA         QA         VA         BVA        FA
  0 Fe    25.5070    26.0000     0.4930     5.9885     2.6500     3.3385
  1 Cl    17.6246    17.0000    -0.6246     0.6875     0.6856     0.0019
  2 Cl    17.6243    17.0000    -0.6243     0.6881     0.6862     0.0020
  3 Cl    17.6221    17.0000    -0.6221     0.6918     0.6899     0.0019
  4 Cl    17.6220    17.0000    -0.6220     0.6919     0.6900     0.0019

  Mayer bond orders larger than 0.1
B(  0-Fe,  1-Cl) :   0.6602 B(  0-Fe,  2-Cl) :   0.6607 B(  0-Fe,  3-Cl) :   0.6645 
B(  0-Fe,  4-Cl) :   0.6645 

-------
TIMINGS
-------

Total SCF time: 0 days 0 hours 0 min 3 sec 

Total time                  ....       3.480 sec
Sum of individual times     ....       3.316 sec  ( 95.3%)

Fock matrix formation       ....       2.700 sec  ( 77.6%)
  Split-RI-J                ....       1.622 sec  ( 60.1% of F)
  XC integration            ....       1.050 sec  ( 38.9% of F)
    Basis function eval.    ....       0.285 sec  ( 27.2% of XC)
    Density eval.           ....       0.247 sec  ( 23.6% of XC)
    XC-Functional eval.     ....       0.145 sec  ( 13.8% of XC)
    XC-Potential eval.      ....       0.342 sec  ( 32.6% of XC)
Diagonalization             ....       0.027 sec  (  0.8%)
Density matrix formation    ....       0.004 sec  (  0.1%)
Population analysis         ....       0.004 sec  (  0.1%)
Initial guess               ....       0.167 sec  (  4.8%)
Orbital Transformation      ....       0.000 sec  (  0.0%)
Orbital Orthonormalization  ....       0.000 sec  (  0.0%)
DIIS solution               ....       0.009 sec  (  0.3%)
Grid generation             ....       0.407 sec  ( 11.7%)

-------------------------   --------------------
FINAL SINGLE POINT ENERGY     -3104.354580863837
-------------------------   --------------------


                            ***************************************
                            *     ORCA property calculations      *
                            ***************************************

                                    ---------------------
                                    Active property flags
                                    ---------------------
   (+) Dipole Moment
   (+) Nuclear properties (Hyperfine,Quadrupole)


------------------------------------------------------------------------------
                       ORCA ELECTRIC PROPERTIES CALCULATION
------------------------------------------------------------------------------

Dipole Moment Calculation                       ... on
Quadrupole Moment Calculation                   ... off
Polarizability Calculation                      ... off
GBWName                                         ... moess.gbw
Electron density file                           ... moess.scfp.tmp
The origin for moment calculation is the CENTER OF MASS  = (-0.001081, -0.002056  0.000015)

-------------
DIPOLE MOMENT
-------------
                                X             Y             Z
Electronic contribution:     -0.02479      -0.04304       0.00042
Nuclear contribution   :      0.00733       0.01394      -0.00010
                        -----------------------------------------
Total Dipole Moment    :     -0.01745      -0.02910       0.00031
                        -----------------------------------------
Magnitude (a.u.)       :      0.03393
Magnitude (Debye)      :      0.08625



--------------------
Rotational spectrum 
--------------------
 
Rotational constants in cm-1:     0.033997     0.033750     0.029753 
Rotational constants in MHz :  1019.212481  1011.800376   891.974021 

 Dipole components along the rotational axes: 
x,y,z [a.u.] :     0.000355    -0.002281     0.033856 
x,y,z [Debye]:     0.000903    -0.005799     0.086055 

 
------------------------------------------------------------------------------
                                ORCA EPR/NMR CALCULATION
------------------------------------------------------------------------------

GBWName                      ... moess.gbw
Electron density file        ... moess.scfp.tmp
Spin density file            ... moess.scfr.tmp
Multiplicity                 ... 5
g-tensor                     ... 0
NMR chemical shifts          ... 0
Number of nuclei for epr/nmr ... 1
   Nucleus:   0Fe
       Hyperfine : Isotope=   57 I=   0.500 P=  17.280
       Quadrupole: Isotope=   57 I=   0.500 Q=   0.160
       Spin-Orbit: Zeff=  13.910
       Ncuelar Spin-Spin: Gn=   0.000
       rho(0)=Y f(grad)=Y a(iso)=N a(dip)=N a(orb)=N sigma(nmr)=N spin-spin(nmr)=all-N,DSO-N,PSO-N,FC-N,SD-N

-----------------------------------------
ELECTRIC AND MAGNETIC HYPERFINE STRUCTURE
-----------------------------------------

 -----------------------------------------------------------
 Nucleus   0Fe: A:ISTP=   57 I=  0.5 P= 17.2798 MHz/au**3
                Q:ISTP=   57 I=  0.5 Q=  0.1600 barn     
 -----------------------------------------------------------
 Raw EFG matrix (all values in a.u.**-3):
            -0.0345      -1.3605       0.0116
            -1.3605      -0.9592      -0.0082
             0.0116      -0.0082       0.9937

 V(El)       0.8763       0.9199      -1.7962
 V(Nuc)      0.0603       0.0773      -0.1376
         ----------   ----------   ----------
 V(Tot)      0.9365       0.9972      -1.9337 
 Orientation: 
  X      -0.7890785    0.1955535    0.5823349
  Y       0.5652441   -0.1400467    0.8129490
  Z       0.2405291    0.9706419   -0.0000277

Note: Tensor is right-handed

Moessbauer quadrupole splitting parameter (proper coordinate system)
 e**2qQ  =  -72.698 MHz =   -6.267 mm/s
 eta     =  0.031
 Delta-EQ=(1/2{e**2qQ}*sqrt(1+1/3*eta**2) =  -36.355 MHz =   -3.134 mm/s
 RHO(0)=  11189.897254880 a.u.**-3


------------------------------------------------------------------------------- 

Timings for individual modules:

Sum of individual times         ...        3.956 sec (=   0.066 min)
GTO integral calculation        ...        0.203 sec (=   0.003 min)   5.1 %
SCF iterations                  ...        3.532 sec (=   0.059 min)  89.3 %
EPR/NMR calculation             ...        0.221 sec (=   0.004 min)   5.6 %
                             ****ORCA TERMINATED NORMALLY****
TOTAL RUN TIME: 0 days 0 hours 0 minutes 4 seconds 169 msec
