
                                 *****************
                                 * O   R   C   A *
                                 *****************

           --- An Ab Initio, DFT and Semiempirical electronic structure package ---

                  #######################################################
                  #                        -***-                        #
                  #          Department of theory and spectroscopy      #
                  #               Directorship: Frank Neese             #
                  #        Max Planck Institute fuer Kohlenforschung    #
                  #                Kaiser Wilhelm Platz 1               #
                  #                 D-45470 Muelheim/Ruhr               #
                  #                      Germany                        #
                  #                                                     #
                  #                  All rights reserved                #
                  #                        -***-                        #
                  #######################################################


                         Program Version 4.1.2  - RELEASE  -


 With contributions from (in alphabetic order):
   Daniel Aravena         : Magnetic Properties
   Michael Atanasov       : Ab Initio Ligand Field Theory
   Alexander A. Auer      : GIAO ZORA
   Ute Becker             : Parallelization
   Giovanni Bistoni       : ED, Open-shell LED
   Martin Brehm           : Molecular dynamics
   Dmytro Bykov           : SCF Hessian
   Vijay G. Chilkuri      : MRCI spin determinant printing
   Dipayan Datta          : RHF DLPNO-CCSD density
   Achintya Kumar Dutta   : EOM-CC, STEOM-CC
   Dmitry Ganyushin       : Spin-Orbit,Spin-Spin,Magnetic field MRCI
   Miquel Garcia          : C-PCM Hessian
   Yang Guo               : DLPNO-NEVPT2, CIM, IAO-localization
   Andreas Hansen         : Spin unrestricted coupled pair/coupled cluster methods
   Benjamin Helmich-Paris : CASSCF linear response (MC-RPA)
   Lee Huntington         : MR-EOM, pCC
   Robert Izsak           : Overlap fitted RIJCOSX, COSX-SCS-MP3, EOM
   Christian Kollmar      : KDIIS, OOCD, Brueckner-CCSD(T), CCSD density
   Simone Kossmann        : Meta GGA functionals, TD-DFT gradient, OOMP2, MP2 Hessian
   Martin Krupicka        : AUTO-CI
   Lucas Lang             : DCDCAS
   Dagmar Lenk            : GEPOL surface, SMD
   Dimitrios Liakos       : Extrapolation schemes; parallel MDCI
   Dimitrios Manganas     : ROCIS; embedding schemes
   Dimitrios Pantazis     : SARC Basis sets
   Taras Petrenko         : DFT Hessian,TD-DFT gradient, ASA, ECA, R-Raman, ABS, FL, XAS/XES, NRVS
   Peter Pinski           : DLPNO-MP2, DLPNO-MP2 Gradient
   Christoph Reimann      : Effective Core Potentials
   Marius Retegan         : Local ZFS, SOC
   Christoph Riplinger    : Optimizer, TS searches, QM/MM, DLPNO-CCSD(T), (RO)-DLPNO pert. Triples
   Tobias Risthaus        : Range-separated hybrids, TD-DFT gradient, RPA, STAB
   Michael Roemelt        : Restricted open shell CIS
   Masaaki Saitow         : Open-shell DLPNO
   Barbara Sandhoefer     : DKH picture change effects
   Avijit Sen             : IP-ROCIS
   Kantharuban Sivalingam : CASSCF convergence, NEVPT2, FIC-MRCI
   Bernardo de Souza      : ESD, SOC TD-DFT
   Georgi Stoychev        : AutoAux, RI-MP2 NMR
   Willem Van den Heuvel  : Paramagnetic NMR
   Boris Wezisla          : Elementary symmetry handling
   Frank Wennmohs         : Technical directorship


 We gratefully acknowledge several colleagues who have allowed us to
 interface, adapt or use parts of their codes:
   Stefan Grimme, W. Hujo, H. Kruse,             : VdW corrections, initial TS optimization,
                  C. Bannwarth                     DFT functionals, gCP, sTDA/sTD-DF
   Ed Valeev                                     : LibInt (2-el integral package), F12 methods
   Garnet Chan, S. Sharma, J. Yang, R. Olivares  : DMRG
   Ulf Ekstrom                                   : XCFun DFT Library
   Mihaly Kallay                                 : mrcc  (arbitrary order and MRCC methods)
   Andreas Klamt, Michael Diedenhofen            : otool_cosmo (COSMO solvation model)
   Jiri Pittner, Ondrej Demel                    : Mk-CCSD
   Frank Weinhold                                : gennbo (NPA and NBO analysis)
   Christopher J. Cramer and Donald G. Truhlar   : smd solvation model
   Lars Goerigk                                  : TD-DFT with DH, B97 family of functionals
   V. Asgeirsson, H. Jonsson                     : NEB implementation
   FAccTs GmbH                                   : IRC, NEB, NEB-TS, Multilevel


 Your calculation uses the libint2 library for the computation of 2-el integrals
 For citations please refer to: http://libint.valeyev.net

 This ORCA versions uses:
   CBLAS   interface :  Fast vector & matrix operations
   LAPACKE interface :  Fast linear algebra routines
   SCALAPACK package :  Parallel linear algebra routines




***************************************
The coordinates will be read from file: geom.xyz
***************************************


----- Orbital basis set information -----
Your calculation utilizes the basis: def2-SVP
   F. Weigend and R. Ahlrichs, Phys. Chem. Chem. Phys. 7, 3297 (2005).

----- AuxJ basis set information -----
Your calculation utilizes the auxiliary basis: def2/J
   F. Weigend, Phys. Chem. Chem. Phys. 8, 1057 (2006).

================================================================================
                                        WARNINGS
                       Please study these warnings very carefully!
================================================================================


WARNING: your system is open-shell and RHF/RKS was chosen
  ===> : WILL SWITCH to UHF/UKS


INFO   : the flag for use of LIBINT has been found!

================================================================================
                                       INPUT FILE
================================================================================
NAME = moess.inp
|  1> ! bp86 def2-svp
|  2> 
|  3> * xyzfile  -1 5 geom.xyz
|  4> 
|  5> %eprnmr
|  6> nuclei = all Fe {fgrad, rho}
|  7> end
|  8> 
|  9> 
| 10>                          ****END OF INPUT****
================================================================================

                       ****************************
                       * Single Point Calculation *
                       ****************************

---------------------------------
CARTESIAN COORDINATES (ANGSTROEM)
---------------------------------
  Fe     0.160860    0.125431    0.007280
  S      1.954319   -0.100547   -1.401170
  S      0.489906    0.262247    2.272335
  S     -1.993019    0.293210   -0.748439
  C      3.571881   -0.100591   -0.558625
  C      4.236031   -1.336152   -0.278681
  C      5.454489   -1.293079    0.419708
  C      6.052323   -0.114495    0.858025
  C      5.419847    1.077582    0.499058
  C      4.220629    1.133964   -0.228208
  C      3.717630   -2.753431   -0.661757
  C      4.740106   -3.867893   -0.325807
  C      3.433149   -2.889168   -2.179374
  C      2.450587   -3.088647    0.154364
  C      7.325521   -0.104064    1.724403
  C      6.940043    0.335623    3.159681
  C      7.976902   -1.499438    1.814609
  C      8.367360    0.892574    1.161936
  C      3.728332    2.550858   -0.653951
  C      4.734555    3.659760   -0.258971
  C      3.605831    2.639551   -2.196983
  C      2.398653    2.943841    0.032163
  C     -1.110521    0.113608    3.130912
  C     -1.878770    1.281650    3.427421
  C     -3.160199    1.106594    3.987076
  C     -3.702374   -0.140769    4.290942
  C     -2.871349   -1.245955    4.107370
  C     -1.580720   -1.166573    3.570234
  C     -1.369763    2.747001    3.267813
  C     -2.401421    3.778832    3.782265
  C     -0.104915    2.951536    4.142984
  C     -1.091036    3.156505    1.803539
  C     -5.115308   -0.331531    4.873748
  C     -5.964584   -1.228353    3.938732
  C     -5.852694    1.007691    5.060548
  C     -5.004924   -1.027769    6.252103
  C     -0.748837   -2.480184    3.531160
  C      0.593080   -2.295290    4.284429
  C     -1.473501   -3.649564    4.237571
  C     -0.522588   -2.942195    2.077720
  C     -2.219436    0.174967   -2.550438
  C     -2.438983   -1.094070   -3.174229
  C     -2.606746   -1.134016   -4.571212
  C     -2.586163    0.003272   -5.379070
  C     -2.419839    1.227956   -4.732014
  C     -2.256044    1.366745   -3.347337
  C     -2.560831   -2.447392   -2.416315
  C     -2.912725   -3.622009   -3.358204
  C     -3.732111   -2.394604   -1.398577
  C     -1.222025   -2.850986   -1.753748
  C     -2.748107   -0.025960   -6.909527
  C     -1.456341    0.514301   -7.574331
  C     -3.000439   -1.443804   -7.450814
  C     -3.944165    0.867584   -7.323600
  C     -2.194367    2.822415   -2.796947
  C     -0.826836    3.145964   -2.151678
  C     -3.361000    3.082135   -1.807426
  C     -2.369233    3.871058   -3.920411
  H     -4.389895   -0.428456    6.932994
  H     -5.998621   -1.154082    6.698934
  H     -4.546463   -2.017468    6.155500
  H     -5.296324    1.679179    5.724473
  H     -6.837419    0.832658    5.508619
  H     -6.002374    1.513567    4.099800
  H     -5.498082   -2.209708    3.798359
  H     -6.957991   -1.381757    4.377972
  H     -6.087953   -0.764236    2.953929
  H     -1.714286   -3.423286    5.282424
  H     -0.813661   -4.524242    4.229581
  H     -2.394608   -3.934006    3.714857
  H      1.165902   -3.231004    4.261297
  H      1.200229   -1.506106    3.838083
  H      0.393585   -2.045980    5.334195
  H      0.073032   -3.863737    2.070143
  H      0.004032   -2.181975    1.502247
  H     -1.486832   -3.135834    1.595087
  H     -3.245484   -2.213735    4.418569
  H     -3.752220    1.984723    4.204272
  H     -1.959042    4.775855    3.678608
  H     -2.651801    3.629166    4.838774
  H     -3.323588    3.765821    3.190845
  H     -0.330798    2.711130    5.189167
  H      0.726648    2.326228    3.810515
  H      0.205637    4.003431    4.099289
  H     -0.307777    2.555888    1.343537
  H     -0.778916    4.209344    1.787647
  H     -2.000054    3.063172    1.199645
  H      2.692098   -3.123636    1.222532
  H      1.671035   -2.342663   -0.000681
  H      2.062496   -4.068313   -0.153556
  H      4.317684   -2.614067   -2.767355
  H      2.594281   -2.262774   -2.484166
  H      3.188365   -3.934510   -2.405954
  H      4.902340   -3.967938    0.753568
  H      5.710135   -3.720229   -0.814044
  H      4.332650   -4.819320   -0.685096
  H      8.297279   -1.865167    0.831767
  H      7.289015   -2.233130    2.248658
  H      8.864414   -1.454212    2.455792
  H      5.950016   -2.227943    0.636783
  H      5.885144    2.007920    0.800033
  H      9.275547    0.867915    1.775523
  H      7.994219    1.921872    1.166673
  H      8.637078    0.634611    0.131254
  H      7.831510    0.352942    3.798138
  H      6.216457   -0.365248    3.590604
  H      6.493796    1.336241    3.158374
  H      5.722993    3.506616   -0.706429
  H      4.849085    3.753682    0.827180
  H      4.345478    4.613666   -0.632516
  H      4.585911    2.473977   -2.661279
  H      3.269148    3.646457   -2.475874
  H      2.894043    1.911480   -2.589588
  H      2.495823    2.869517    1.120944
  H      2.152552    3.982565   -0.221892
  H      1.565986    2.309017   -0.275833
  H     -2.762177   -2.095393   -5.040836
  H     -2.434966    2.121637   -5.342513
  H     -2.952293   -4.532924   -2.751323
  H     -2.155124   -3.781151   -4.133388
  H     -3.890403   -3.493130   -3.835927
  H     -0.448913   -2.972241   -2.521338
  H     -0.868763   -2.120183   -1.024660
  H     -1.346869   -3.817731   -1.249280
  H     -3.852347   -3.380231   -0.930409
  H     -4.663274   -2.156464   -1.928288
  H     -3.567295   -1.651394   -0.618388
  H     -1.588862    3.790197   -4.684552
  H     -2.291347    4.866717   -3.470814
  H     -3.347969    3.791344   -4.407003
  H     -0.030415    3.009424   -2.892296
  H     -0.609010    2.512069   -1.291348
  H     -0.819052    4.194336   -1.829061
  H     -3.334890    4.131518   -1.487035
  H     -4.326346    2.911762   -2.300883
  H     -3.301282    2.444574   -0.924182
  H     -0.589504   -0.091131   -7.285260
  H     -1.256740    1.553259   -7.291450
  H     -1.555025    0.470060   -8.665684
  H     -3.829204    1.888317   -6.946469
  H     -4.023732    0.914625   -8.416575
  H     -4.884095    0.465466   -6.928105
  H     -2.172791   -2.121131   -7.211200
  H     -3.097219   -1.400660   -8.541713
  H     -3.927643   -1.866896   -7.048057

----------------------------
CARTESIAN COORDINATES (A.U.)
----------------------------
  NO LB      ZA    FRAG     MASS         X           Y           Z
   0 Fe   26.0000    0    55.850    0.303981    0.237030    0.013757
   1 S    16.0000    0    32.060    3.693128   -0.190006   -2.647828
   2 S    16.0000    0    32.060    0.925788    0.495575    4.294091
   3 S    16.0000    0    32.060   -3.766260    0.554087   -1.414345
   4 C     6.0000    0    12.011    6.749877   -0.190089   -1.055648
   5 C     6.0000    0    12.011    8.004938   -2.524961   -0.526631
   6 C     6.0000    0    12.011   10.307490   -2.443565    0.793133
   7 C     6.0000    0    12.011   11.437233   -0.216364    1.621432
   8 C     6.0000    0    12.011   10.242027    2.036335    0.943083
   9 C     6.0000    0    12.011    7.975833    2.142881   -0.431251
  10 C     6.0000    0    12.011    7.025303   -5.203231   -1.250539
  11 C     6.0000    0    12.011    8.957502   -7.309258   -0.615686
  12 C     6.0000    0    12.011    6.487711   -5.459736   -4.118420
  13 C     6.0000    0    12.011    4.630938   -5.836697    0.291706
  14 C     6.0000    0    12.011   13.843228   -0.196652    3.258649
  15 C     6.0000    0    12.011   13.114781    0.634236    5.970932
  16 C     6.0000    0    12.011   15.074160   -2.833527    3.429114
  17 C     6.0000    0    12.011   15.812019    1.686720    2.195741
  18 C     6.0000    0    12.011    7.045526    4.820423   -1.235788
  19 C     6.0000    0    12.011    8.947012    6.915944   -0.489384
  20 C     6.0000    0    12.011    6.814033    4.988029   -4.151696
  21 C     6.0000    0    12.011    4.532797    5.563053    0.060779
  22 C     6.0000    0    12.011   -2.098581    0.214688    5.916566
  23 C     6.0000    0    12.011   -3.550361    2.421967    6.476887
  24 C     6.0000    0    12.011   -5.971911    2.091160    7.534482
  25 C     6.0000    0    12.011   -6.996473   -0.266015    8.108705
  26 C     6.0000    0    12.011   -5.426063   -2.354514    7.761804
  27 C     6.0000    0    12.011   -2.987128   -2.204503    6.746764
  28 C     6.0000    0    12.011   -2.588477    5.191080    6.175272
  29 C     6.0000    0    12.011   -4.538028    7.140958    7.147445
  30 C     6.0000    0    12.011   -0.198261    5.577595    7.829105
  31 C     6.0000    0    12.011   -2.061759    5.964930    3.408195
  32 C     6.0000    0    12.011   -9.666531   -0.626503    9.210049
  33 C     6.0000    0    12.011  -11.271430   -2.321251    7.443125
  34 C     6.0000    0    12.011  -11.059989    1.904260    9.563050
  35 C     6.0000    0    12.011   -9.457936   -1.942202   11.814762
  36 C     6.0000    0    12.011   -1.415097   -4.686869    6.672925
  37 C     6.0000    0    12.011    1.120759   -4.337469    8.096397
  38 C     6.0000    0    12.011   -2.784513   -6.896676    8.007849
  39 C     6.0000    0    12.011   -0.987548   -5.559943    3.926322
  40 C     6.0000    0    12.011   -4.194126    0.330640   -4.819629
  41 C     6.0000    0    12.011   -4.609010   -2.067493   -5.998423
  42 C     6.0000    0    12.011   -4.926036   -2.142980   -8.638339
  43 C     6.0000    0    12.011   -4.887140    0.006183  -10.164969
  44 C     6.0000    0    12.011   -4.572833    2.320501   -8.942211
  45 C     6.0000    0    12.011   -4.263305    2.582774   -6.325550
  46 C     6.0000    0    12.011   -4.839269   -4.624901   -4.566174
  47 C     6.0000    0    12.011   -5.504253   -6.844605   -6.346086
  48 C     6.0000    0    12.011   -7.052668   -4.525146   -2.642928
  49 C     6.0000    0    12.011   -2.309293   -5.387583   -3.314103
  50 C     6.0000    0    12.011   -5.193170   -0.049057  -13.057114
  51 C     6.0000    0    12.011   -2.752086    0.971888  -14.313411
  52 C     6.0000    0    12.011   -5.670008   -2.728394  -14.079998
  53 C     6.0000    0    12.011   -7.453392    1.639496  -13.839598
  54 C     6.0000    0    12.011   -4.146753    5.333591   -5.285464
  55 C     6.0000    0    12.011   -1.562494    5.945010   -4.066082
  56 C     6.0000    0    12.011   -6.351370    5.824391   -3.415540
  57 C     6.0000    0    12.011   -4.477202    7.315239   -7.408503
  58 H     1.0000    0     1.008   -8.295699   -0.809665   13.101460
  59 H     1.0000    0     1.008  -11.335751   -2.180899   12.659151
  60 H     1.0000    0     1.008   -8.591570   -3.812462   11.632209
  61 H     1.0000    0     1.008  -10.008602    3.173188   10.817686
  62 H     1.0000    0     1.008  -12.920849    1.573496   10.409781
  63 H     1.0000    0     1.008  -11.342843    2.860227    7.747499
  64 H     1.0000    0     1.008  -10.389869   -4.175743    7.177858
  65 H     1.0000    0     1.008  -13.148697   -2.611142    8.273168
  66 H     1.0000    0     1.008  -11.504564   -1.444197    5.582117
  67 H     1.0000    0     1.008   -3.239531   -6.469073    9.982335
  68 H     1.0000    0     1.008   -1.537596   -8.549578    7.992750
  69 H     1.0000    0     1.008   -4.525153   -7.434194    7.020062
  70 H     1.0000    0     1.008    2.203235   -6.105713    8.052684
  71 H     1.0000    0     1.008    2.268104   -2.846128    7.252926
  72 H     1.0000    0     1.008    0.743768   -3.866342   10.080168
  73 H     1.0000    0     1.008    0.138010   -7.301405    3.912003
  74 H     1.0000    0     1.008    0.007619   -4.123335    2.838835
  75 H     1.0000    0     1.008   -2.809705   -5.925867    3.014278
  76 H     1.0000    0     1.008   -6.133076   -4.183353    8.349885
  77 H     1.0000    0     1.008   -7.090668    3.750583    7.944923
  78 H     1.0000    0     1.008   -3.702053    9.025058    6.951562
  79 H     1.0000    0     1.008   -5.011178    6.858130    9.143958
  80 H     1.0000    0     1.008   -6.280671    7.116370    6.029823
  81 H     1.0000    0     1.008   -0.625118    5.123293    9.806104
  82 H     1.0000    0     1.008    1.373166    4.395934    7.200830
  83 H     1.0000    0     1.008    0.388598    7.565388    7.746534
  84 H     1.0000    0     1.008   -0.581614    4.829928    2.538917
  85 H     1.0000    0     1.008   -1.471938    7.954507    3.378163
  86 H     1.0000    0     1.008   -3.779554    5.788556    2.267001
  87 H     1.0000    0     1.008    5.087328   -5.902817    2.310251
  88 H     1.0000    0     1.008    3.157799   -4.426991   -0.001287
  89 H     1.0000    0     1.008    3.897553   -7.687997   -0.290179
  90 H     1.0000    0     1.008    8.159240   -4.939871   -5.229543
  91 H     1.0000    0     1.008    4.902481   -4.276023   -4.694393
  92 H     1.0000    0     1.008    6.025137   -7.435146   -4.546594
  93 H     1.0000    0     1.008    9.264080   -7.498316    1.424037
  94 H     1.0000    0     1.008   10.790591   -7.030214   -1.538320
  95 H     1.0000    0     1.008    8.187522   -9.107195   -1.294644
  96 H     1.0000    0     1.008   15.679585   -3.524655    1.571812
  97 H     1.0000    0     1.008   13.774242   -4.220004    4.249348
  98 H     1.0000    0     1.008   16.751315   -2.748062    4.640774
  99 H     1.0000    0     1.008   11.243901   -4.210202    1.203345
 100 H     1.0000    0     1.008   11.121310    3.794419    1.511843
 101 H     1.0000    0     1.008   17.528244    1.640122    3.355252
 102 H     1.0000    0     1.008   15.106885    3.631812    2.204692
 103 H     1.0000    0     1.008   16.321712    1.199241    0.248034
 104 H     1.0000    0     1.008   14.799409    0.666964    7.177441
 105 H     1.0000    0     1.008   11.747401   -0.690219    6.785258
 106 H     1.0000    0     1.008   12.271496    2.525130    5.968462
 107 H     1.0000    0     1.008   10.814889    6.626544   -1.334957
 108 H     1.0000    0     1.008    9.163443    7.093431    1.563144
 109 H     1.0000    0     1.008    8.211763    8.718565   -1.195282
 110 H     1.0000    0     1.008    8.666116    4.675139   -5.029088
 111 H     1.0000    0     1.008    6.177794    6.890805   -4.678724
 112 H     1.0000    0     1.008    5.468949    3.612174   -4.893612
 113 H     1.0000    0     1.008    4.716422    5.422601    2.118277
 114 H     1.0000    0     1.008    4.067734    7.525957   -0.419315
 115 H     1.0000    0     1.008    2.959285    4.363410   -0.521249
 116 H     1.0000    0     1.008   -5.219758   -3.959719   -9.525800
 117 H     1.0000    0     1.008   -4.601419    4.009313  -10.095886
 118 H     1.0000    0     1.008   -5.579025   -8.565985   -5.199247
 119 H     1.0000    0     1.008   -4.072594   -7.145340   -7.810971
 120 H     1.0000    0     1.008   -7.351796   -6.601059   -7.248851
 121 H     1.0000    0     1.008   -0.848323   -5.616721   -4.764638
 122 H     1.0000    0     1.008   -1.641724   -4.006565   -1.936327
 123 H     1.0000    0     1.008   -2.545214   -7.214466   -2.360797
 124 H     1.0000    0     1.008   -7.279881   -6.387711   -1.758218
 125 H     1.0000    0     1.008   -8.812311   -4.075126   -3.643936
 126 H     1.0000    0     1.008   -6.741211   -3.120682   -1.168584
 127 H     1.0000    0     1.008   -3.002514    7.162434   -8.852520
 128 H     1.0000    0     1.008   -4.330018    9.196762   -6.558888
 129 H     1.0000    0     1.008   -6.326745    7.164602   -8.328029
 130 H     1.0000    0     1.008   -0.057476    5.686987   -5.465647
 131 H     1.0000    0     1.008   -1.150862    4.747122   -2.440294
 132 H     1.0000    0     1.008   -1.547784    7.926146   -3.456424
 133 H     1.0000    0     1.008   -6.302029    7.807438   -2.810089
 134 H     1.0000    0     1.008   -8.175609    5.502433   -4.348039
 135 H     1.0000    0     1.008   -6.238519    4.619575   -1.746451
 136 H     1.0000    0     1.008   -1.114001   -0.172213  -13.767146
 137 H     1.0000    0     1.008   -2.374894    2.935234  -13.778844
 138 H     1.0000    0     1.008   -2.938571    0.888285  -16.375770
 139 H     1.0000    0     1.008   -7.236147    3.568402  -13.126924
 140 H     1.0000    0     1.008   -7.603752    1.728391  -15.905022
 141 H     1.0000    0     1.008   -9.229602    0.879603  -13.092221
 142 H     1.0000    0     1.008   -4.105980   -4.008357  -13.627193
 143 H     1.0000    0     1.008   -5.852896   -2.646864  -16.141498
 144 H     1.0000    0     1.008   -7.422170   -3.527922  -13.318898

--------------------------------
INTERNAL COORDINATES (ANGSTROEM)
--------------------------------
 Fe     0   0   0     0.000000000000     0.00000000     0.00000000
 S      1   0   0     2.291569908090     0.00000000     0.00000000
 S      1   2   0     2.292916056247   120.04804611     0.00000000
 S      1   2   3     2.288767298448   122.73798212   177.94800505
 C      2   1   3     1.823839056168   114.21659111   358.13154327
 C      5   2   1     1.430410727853   120.14730014    98.91896471
 C      6   5   2     1.405077356025   118.25756171   182.51998685
 C      7   6   5     1.392331687889   123.69491941     0.13079355
 C      8   7   6     1.396399216411   116.56539574   356.14906347
 C      9   8   7     1.403644747151   123.67297869     1.97496580
 C      6   5   2     1.556973532986   125.69960020     1.49968155
 C     11   6   5     1.549304722293   112.43927600   174.76260807
 C     11   6   5     1.550004945547   112.44036289    55.61105577
 C     11   6   5     1.543962828939   109.92669456   292.23667319
 C      8   7   6     1.540049606944   122.53463794   174.65947673
 C     15   8   7     1.549819629420   108.49866770   251.45696583
 C     15   8   7     1.542563752158   112.07830980    10.51039645
 C     15   8   7     1.547606193789   110.88220268   132.09732977
 C     10   9   8     1.559231235415   116.59761666   185.51081886
 C     19  10   9     1.548598583150   112.08043999     3.74455073
 C     19  10   9     1.550425972523   110.40624977   120.81806525
 C     19  10   9     1.547008177847   112.40276403   245.40166434
 C      3   1   2     1.822255360694   109.54416809   190.75859694
 C     23   3   1     1.429141779827   120.21248151   269.42044330
 C     24  23   3     1.409226243086   118.01347764   174.59267685
 C     25  24  23     1.393629337503   123.47224979     1.40698873
 C     26  25  24     1.394896886657   116.65921506     4.63239480
 C     27  26  25     1.400192772464   123.69068997   356.10350159
 C     24  23   3     1.559428226278   124.84086122   350.25637441
 C     29  24  23     1.547143917620   112.02470552   184.70585653
 C     29  24  23     1.551644066328   109.40313619   301.39212205
 C     29  24  23     1.545794492687   113.87490478    65.75636870
 C     26  25  24     1.540271230218   123.38267265   181.39650122
 C     33  26  25     1.549133417145   110.25646584   121.50219474
 C     33  26  25     1.540177885272   112.17195239     0.70815563
 C     33  26  25     1.548158417645   109.09708825   240.47189974
 C     28  27  26     1.555355252824   117.04914649   175.60494505
 C     37  28  27     1.549948777375   110.49374890   236.60726509
 C     37  28  27     1.546481166460   112.11876539   354.48251703
 C     37  28  27     1.541794606205   110.80886991   112.48211592
 C      4   1   2     1.820012763949   116.05462166     2.19502213
 C     41   4   1     1.431003495544   120.55054406    90.00330270
 C     42  41   4     1.407587158713   118.42970226   180.08309568
 C     43  42  41     1.395163862418   123.35243320   359.19753682
 C     44  43  42     1.395061303301   116.66657107   358.47290686
 C     45  44  43     1.401221461039   124.00263974     0.99466204
 C     42  41   4     1.555879494750   124.82228680     2.47048564
 C     47  42  41     1.546191893733   112.44908806   175.24351635
 C     47  42  41     1.552570142695   110.41574132    58.73034587
 C     47  42  41     1.547347618333   111.57378507   292.98120594
 C     44  43  42     1.539278726485   123.96528077   179.09630159
 C     51  44  43     1.550001840416   109.39921220   242.66588560
 C     51  44  43     1.538487784459   112.61711798     2.62019137
 C     51  44  43     1.549332781758   109.63295034   123.02858909
 C     46  45  44     1.557468572180   116.51414688   184.56157679
 C     55  46  45     1.546349596218   112.21251587   243.65014014
 C     55  46  45     1.551656806298   110.61150377   118.66242384
 C     55  46  45     1.546739027341   111.86983174     1.55109414
 H     36  33  26     1.095923946582   110.31804732    58.64954547
 H     36  33  26     1.096834830017   110.48088489   178.69039878
 H     36  33  26     1.094998967457   110.96390349   298.61215796
 H     35  33  26     1.096011002075   111.29440115   301.38784020
 H     35  33  26     1.095941375145   109.93148928   181.97953565
 H     35  33  26     1.096061745195   111.12412320    62.44825118
 H     34  33  26     1.095621436062   111.25035669    58.74825847
 H     34  33  26     1.096960360480   109.61828252   178.32526424
 H     34  33  26     1.095655716299   111.03929424   298.18485161
 H     39  37  28     1.095854434274   112.47944711   302.49162506
 H     39  37  28     1.095679820652   108.54878978   183.41376304
 H     39  37  28     1.096619935351   111.83855601    65.37771450
 H     38  37  28     1.097369957172   109.87516191   179.30157008
 H     38  37  28     1.091176450338   111.66717517   299.76881584
 H     38  37  28     1.097252197939   109.55169365    60.82173647
 H     40  37  28     1.097296793531   109.74438887   179.47988007
 H     40  37  28     1.089234706814   111.09132068    59.28701084
 H     40  37  28     1.095535105118   109.82247461   299.33874430
 H     27  26  25     1.083245098870   117.66362633   174.84786986
 H     25  24  23     1.081098287621   118.47898279   180.66219182
 H     30  29  24     1.095672768585   107.83001128   177.58526498
 H     30  29  24     1.096038924052   112.44412610    58.73264413
 H     30  29  24     1.095599780216   111.95266925   295.55033848
 H     31  29  24     1.096958086717   109.94847308   303.09408750
 H     31  29  24     1.092264965013   111.92893673    64.08695224
 H     31  29  24     1.097649711317   109.54221630   184.76487202
 H     32  29  24     1.088961561201   112.56464285   297.93398039
 H     32  29  24     1.098244694950   108.59728096   177.70848207
 H     32  29  24     1.095313989890   110.49029797    59.38631571
 H     14  11   6     1.095689129939   109.95970213   296.95262588
 H     14  11   6     1.090060732705   111.29152369    57.27126965
 H     14  11   6     1.097804546464   109.60888384   177.34674306
 H     13  11   6     1.097180196133   110.78010533    54.62840558
 H     13  11   6     1.090397692553   111.38137611   293.06341266
 H     13  11   6     1.097268244332   109.05960779   173.29446462
 H     12  11   6     1.096074478950   112.14029062    65.69776851
 H     12  11   6     1.095963633478   112.99222718   302.47323142
 H     12  11   6     1.095592220576   107.94622908   183.78273566
 H     17  15   8     1.096529762721   111.88033936    61.90034263
 H     17  15   8     1.095395366995   111.33859043   300.46009398
 H     17  15   8     1.095827806140   109.80873906   181.24662382
 H      7   6   5     1.080110763695   118.11233290   179.51807109
 H      9   8   7     1.082873973774   117.86301339   182.04430722
 H     18  15   8     1.096312318557   109.86329352   181.43525058
 H     18  15   8     1.094856619770   111.98848520    62.02318955
 H     18  15   8     1.096174299104   110.84378642   301.32557386
 H     16  15   8     1.096649762093   109.96544513   180.09077589
 H     16  15   8     1.095669425496   110.30463964    60.41191314
 H     16  15   8     1.095616025431   111.05747407   300.20297913
 H     20  19  10     1.095756098018   112.45103945    58.78297314
 H     20  19  10     1.096203657075   112.45490502   295.54176642
 H     20  19  10     1.095834584137   107.79928719   177.25277369
 H     21  19  10     1.097060769279   109.99754636   298.69578521
 H     21  19  10     1.097722790693   109.24194998   180.61514663
 H     21  19  10     1.091269088727   111.80338895    60.26503482
 H     22  19  10     1.095632297734   110.32074705    55.31782161
 H     22  19  10     1.097295399335   109.30247059   174.31047920
 H     22  19  10     1.091419891646   112.50911396   294.67238666
 H     43  42  41     1.081180481356   118.25902769   179.37383934
 H     45  44  43     1.082406386202   117.48642555   181.98978490
 H     48  47  42     1.095279102334   107.60775594   178.52681749
 H     48  47  42     1.095534429044   112.58214405    60.58375226
 H     48  47  42     1.095756968061   112.28990459   297.10599813
 H     50  47  42     1.096174870935   109.83052151   299.05650364
 H     50  47  42     1.091071206291   113.05210452    60.10978305
 H     50  47  42     1.097574545252   109.15537128   181.14606067
 H     49  47  42     1.097769809682   109.36968770   175.64477448
 H     49  47  42     1.097437440445   109.33456555    57.67146217
 H     49  47  42     1.090055179189   112.22786555   296.58096228
 H     58  55  46     1.095184398557   112.09706863   299.81172239
 H     58  55  46     1.095235379125   108.06676385   181.36963748
 H     58  55  46     1.095924383320   111.97177566    62.33248824
 H     56  55  46     1.096104284621   109.54539776    58.72641250
 H     56  55  46     1.090613930867   112.59371852   298.03998018
 H     56  55  46     1.096916664897   109.20680479   177.08389424
 H     57  55  46     1.097513920490   109.16687852   183.78388749
 H     57  55  46     1.097460554960   110.40330430   301.74399820
 H     57  55  46     1.090949234282   112.16824561    63.20391617
 H     52  51  44     1.096137005230   110.69729151    59.16173702
 H     52  51  44     1.095123712247   111.82580763   298.47781740
 H     52  51  44     1.096698303339   109.74062330   178.44626112
 H     54  51  44     1.094230176869   111.39363733    55.71460798
 H     54  51  44     1.096876526230   110.30645836   175.79197878
 H     54  51  44     1.096167681447   110.72959256   295.58982932
 H     53  51  44     1.095987201490   111.63962294   299.83718804
 H     53  51  44     1.096033029309   109.17095757   180.53370384
 H     53  51  44     1.095868285484   111.42407802    61.53693336

---------------------------
INTERNAL COORDINATES (A.U.)
---------------------------
 Fe     0   0   0     0.000000000000     0.00000000     0.00000000
 S      1   0   0     4.330439543026     0.00000000     0.00000000
 S      1   2   0     4.332983394378   120.04804611     0.00000000
 S      1   2   3     4.325143378341   122.73798212   177.94800505
 C      2   1   3     3.446556328508   114.21659111   358.13154327
 C      5   2   1     2.703084534665   120.14730014    98.91896471
 C      6   5   2     2.655211399861   118.25756171   182.51998685
 C      7   6   5     2.631125577691   123.69491941     0.13079355
 C      8   7   6     2.638812092640   116.56539574   356.14906347
 C      9   8   7     2.652504161432   123.67297869     1.97496580
 C      6   5   2     2.942253575107   125.69960020     1.49968155
 C     11   6   5     2.927761623125   112.43927600   174.76260807
 C     11   6   5     2.929084853307   112.44036289    55.61105577
 C     11   6   5     2.917666907649   109.92669456   292.23667319
 C      8   7   6     2.910271989778   122.53463794   174.65947673
 C     15   8   7     2.928734656580   108.49866770   251.45696583
 C     15   8   7     2.915023035693   112.07830980    10.51039645
 C     15   8   7     2.924551869421   110.88220268   132.09732977
 C     10   9   8     2.946520014390   116.59761666   185.51081886
 C     19  10   9     2.926427213531   112.08043999     3.74455073
 C     19  10   9     2.929880478987   110.40624977   120.81806525
 C     19  10   9     2.923421783068   112.40276403   245.40166434
 C      3   1   2     3.443563577782   109.54416809   190.75859694
 C     23   3   1     2.700686570417   120.21248151   269.42044330
 C     24  23   3     2.663051660167   118.01347764   174.59267685
 C     25  24  23     2.633577780079   123.47224979     1.40698873
 C     26  25  24     2.635973100841   116.65921506     4.63239480
 C     27  26  25     2.645980874653   123.69068997   356.10350159
 C     24  23   3     2.946892273173   124.84086122   350.25637441
 C     29  24  23     2.923678294064   112.02470552   184.70585653
 C     29  24  23     2.932182342683   109.40313619   301.39212205
 C     29  24  23     2.921128250502   113.87490478    65.75636870
 C     26  25  24     2.910690797069   123.38267265   181.39650122
 C     33  26  25     2.927437903310   110.25646584   121.50219474
 C     33  26  25     2.910514400685   112.17195239     0.70815563
 C     33  26  25     2.925595421274   109.09708825   240.47189974
 C     28  27  26     2.939195468792   117.04914649   175.60494505
 C     37  28  27     2.928978710845   110.49374890   236.60726509
 C     37  28  27     2.922425875877   112.11876539   354.48251703
 C     37  28  27     2.913569560484   110.80886991   112.48211592
 C      4   1   2     3.439325684106   116.05462166     2.19502213
 C     41   4   1     2.704204703262   120.55054406    90.00330270
 C     42  41   4     2.659954239592   118.42970226   180.08309568
 C     43  42  41     2.636477611914   123.35243320   359.19753682
 C     44  43  42     2.636283803270   116.66657107   358.47290686
 C     45  44  43     2.647924814336   124.00263974     0.99466204
 C     42  41   4     2.940186142462   124.82228680     2.47048564
 C     47  42  41     2.921879229645   112.44908806   175.24351635
 C     47  42  41     2.933932373397   110.41574132    58.73034587
 C     47  42  41     2.924063232625   111.57378507   292.98120594
 C     44  43  42     2.908815236828   123.96528077   179.09630159
 C     51  44  43     2.929078985460   109.39921220   242.66588560
 C     51  44  43     2.907320573010   112.61711798     2.62019137
 C     51  44  43     2.927814647828   109.63295034   123.02858909
 C     46  45  44     2.943189063610   116.51414688   184.56157679
 C     55  46  45     2.922177244151   112.21251587   243.65014014
 C     55  46  45     2.932206417738   110.61150377   118.66242384
 C     55  46  45     2.922913162323   111.86983174     1.55109414
 H     36  33  26     2.070996122645   110.31804732    58.64954547
 H     36  33  26     2.072717442879   110.48088489   178.69039878
 H     36  33  26     2.069248165420   110.96390349   298.61215796
 H     35  33  26     2.071160633686   111.29440115   301.38784020
 H     35  33  26     2.071029057857   109.93148928   181.97953565
 H     35  33  26     2.071256524286   111.12412320    62.44825118
 H     34  33  26     2.070424460610   111.25035669    58.74825847
 H     34  33  26     2.072954661075   109.61828252   178.32526424
 H     34  33  26     2.070489240871   111.03929424   298.18485161
 H     39  37  28     2.070864763421   112.47944711   302.49162506
 H     39  37  28     2.070534791496   108.54878978   183.41376304
 H     39  37  28     2.072311350812   111.83855601    65.37771450
 H     38  37  28     2.073728686648   109.87516191   179.30157008
 H     38  37  28     2.062024654924   111.66717517   299.76881584
 H     38  37  28     2.073506153947   109.55169365    60.82173647
 H     40  37  28     2.073590427403   109.74438887   179.47988007
 H     40  37  28     2.058355291441   111.09132068    59.28701084
 H     40  37  28     2.070261318770   109.82247461   299.33874430
 H     27  26  25     2.047036572777   117.66362633   174.84786986
 H     25  24  23     2.042979687456   118.47898279   180.66219182
 H     30  29  24     2.070521465021   107.83001128   177.58526498
 H     30  29  24     2.071213398576   112.44412610    58.73264413
 H     30  29  24     2.070383536993   111.95266925   295.55033848
 H     31  29  24     2.072950364286   109.94847308   303.09408750
 H     31  29  24     2.064081649551   111.92893673    64.08695224
 H     31  29  24     2.074257345367   109.54221630   184.76487202
 H     32  29  24     2.057839121038   112.56464285   297.93398039
 H     32  29  24     2.075381701487   108.59728096   177.70848207
 H     32  29  24     2.069843471545   110.49029797    59.38631571
 H     14  11   6     2.070552383499   109.95970213   296.95262588
 H     14  11   6     2.059916254154   111.29152369    57.27126965
 H     14  11   6     2.074549941391   109.60888384   177.34674306
 H     13  11   6     2.073370090254   110.78010533    54.62840558
 H     13  11   6     2.060553015984   111.38137611   293.06341266
 H     13  11   6     2.073536477237   109.05960779   173.29446462
 H     12  11   6     2.071280587596   112.14029062    65.69776851
 H     12  11   6     2.071071120010   112.99222718   302.47323142
 H     12  11   6     2.070369251343   107.94622908   183.78273566
 H     17  15   8     2.072140949237   111.88033936    61.90034263
 H     17  15   8     2.069997251987   111.33859043   300.46009398
 H     17  15   8     2.070814443540   109.80873906   181.24662382
 H      7   6   5     2.041113537684   118.11233290   179.51807109
 H      9   8   7     2.046335247985   117.86301339   182.04430722
 H     18  15   8     2.071730039316   109.86329352   181.43525058
 H     18  15   8     2.068979167276   111.98848520    62.02318955
 H     18  15   8     2.071469220350   110.84378642   301.32557386
 H     16  15   8     2.072367715186   109.96544513   180.09077589
 H     16  15   8     2.070515147498   110.30463964    60.41191314
 H     16  15   8     2.070414236001   111.05747407   300.20297913
 H     20  19  10     2.070678934829   112.45103945    58.78297314
 H     20  19  10     2.071524698875   112.45490502   295.54176642
 H     20  19  10     2.070827252098   107.79928719   177.25277369
 H     21  19  10     2.073144406207   109.99754636   298.69578521
 H     21  19  10     2.074395445373   109.24194998   180.61514663
 H     21  19  10     2.062199716107   111.80338895    60.26503482
 H     22  19  10     2.070444986195   110.32074705    55.31782161
 H     22  19  10     2.073587792755   109.30247059   174.31047920
 H     22  19  10     2.062484692325   112.50911396   294.67238666
 H     43  42  41     2.043135011105   118.25902769   179.37383934
 H     45  44  43     2.045451635529   117.48642555   181.98978490
 H     48  47  42     2.069777543619   107.60775594   178.52681749
 H     48  47  42     2.070260041175   112.58214405    60.58375226
 H     48  47  42     2.070680578971   112.28990459   297.10599813
 H     50  47  42     2.071470300953   109.83052151   299.05650364
 H     50  47  42     2.061825772497   113.05210452    60.10978305
 H     50  47  42     2.074115302089   109.15537128   181.14606067
 H     49  47  42     2.074484298386   109.36968770   175.64477448
 H     49  47  42     2.073856211552   109.33456555    57.67146217
 H     49  47  42     2.059905759530   112.22786555   296.58096228
 H     58  55  46     2.069598579416   112.09706863   299.81172239
 H     58  55  46     2.069694918727   108.06676385   181.36963748
 H     58  55  46     2.070996947962   111.97177566    62.33248824
 H     56  55  46     2.071336912152   109.54539776    58.72641250
 H     56  55  46     2.060961647178   112.59371852   298.03998018
 H     56  55  46     2.072872088390   109.20680479   177.08389424
 H     57  55  46     2.074000737893   109.16687852   183.78388749
 H     57  55  46     2.073899891656   110.40330430   301.74399820
 H     57  55  46     2.061595278805   112.16824561    63.20391617
 H     52  51  44     2.071398745141   110.69729151    59.16173702
 H     52  51  44     2.069483898910   111.82580763   298.47781740
 H     52  51  44     2.072459444846   109.74062330   178.44626112
 H     54  51  44     2.067795361755   111.39363733    55.71460798
 H     54  51  44     2.072796237302   110.30645836   175.79197878
 H     54  51  44     2.071456714790   110.72959256   295.58982932
 H     53  51  44     2.071115657098   111.63962294   299.83718804
 H     53  51  44     2.071202259127   109.17095757   180.53370384
 H     53  51  44     2.070890938414   111.42407802    61.53693336

---------------------
BASIS SET INFORMATION
---------------------
There are 4 groups of distinct atoms

 Group   1 Type Fe  : 14s9p5d1f contracted to 5s3p2d1f pattern {63311/531/41/1}
 Group   2 Type S   : 10s7p1d contracted to 4s3p1d pattern {5311/511/1}
 Group   3 Type C   : 7s4p1d contracted to 3s2p1d pattern {511/31/1}
 Group   4 Type H   : 4s1p contracted to 2s1p pattern {31/1}

Atom   0Fe   basis set group =>   1
Atom   1S    basis set group =>   2
Atom   2S    basis set group =>   2
Atom   3S    basis set group =>   2
Atom   4C    basis set group =>   3
Atom   5C    basis set group =>   3
Atom   6C    basis set group =>   3
Atom   7C    basis set group =>   3
Atom   8C    basis set group =>   3
Atom   9C    basis set group =>   3
Atom  10C    basis set group =>   3
Atom  11C    basis set group =>   3
Atom  12C    basis set group =>   3
Atom  13C    basis set group =>   3
Atom  14C    basis set group =>   3
Atom  15C    basis set group =>   3
Atom  16C    basis set group =>   3
Atom  17C    basis set group =>   3
Atom  18C    basis set group =>   3
Atom  19C    basis set group =>   3
Atom  20C    basis set group =>   3
Atom  21C    basis set group =>   3
Atom  22C    basis set group =>   3
Atom  23C    basis set group =>   3
Atom  24C    basis set group =>   3
Atom  25C    basis set group =>   3
Atom  26C    basis set group =>   3
Atom  27C    basis set group =>   3
Atom  28C    basis set group =>   3
Atom  29C    basis set group =>   3
Atom  30C    basis set group =>   3
Atom  31C    basis set group =>   3
Atom  32C    basis set group =>   3
Atom  33C    basis set group =>   3
Atom  34C    basis set group =>   3
Atom  35C    basis set group =>   3
Atom  36C    basis set group =>   3
Atom  37C    basis set group =>   3
Atom  38C    basis set group =>   3
Atom  39C    basis set group =>   3
Atom  40C    basis set group =>   3
Atom  41C    basis set group =>   3
Atom  42C    basis set group =>   3
Atom  43C    basis set group =>   3
Atom  44C    basis set group =>   3
Atom  45C    basis set group =>   3
Atom  46C    basis set group =>   3
Atom  47C    basis set group =>   3
Atom  48C    basis set group =>   3
Atom  49C    basis set group =>   3
Atom  50C    basis set group =>   3
Atom  51C    basis set group =>   3
Atom  52C    basis set group =>   3
Atom  53C    basis set group =>   3
Atom  54C    basis set group =>   3
Atom  55C    basis set group =>   3
Atom  56C    basis set group =>   3
Atom  57C    basis set group =>   3
Atom  58H    basis set group =>   4
Atom  59H    basis set group =>   4
Atom  60H    basis set group =>   4
Atom  61H    basis set group =>   4
Atom  62H    basis set group =>   4
Atom  63H    basis set group =>   4
Atom  64H    basis set group =>   4
Atom  65H    basis set group =>   4
Atom  66H    basis set group =>   4
Atom  67H    basis set group =>   4
Atom  68H    basis set group =>   4
Atom  69H    basis set group =>   4
Atom  70H    basis set group =>   4
Atom  71H    basis set group =>   4
Atom  72H    basis set group =>   4
Atom  73H    basis set group =>   4
Atom  74H    basis set group =>   4
Atom  75H    basis set group =>   4
Atom  76H    basis set group =>   4
Atom  77H    basis set group =>   4
Atom  78H    basis set group =>   4
Atom  79H    basis set group =>   4
Atom  80H    basis set group =>   4
Atom  81H    basis set group =>   4
Atom  82H    basis set group =>   4
Atom  83H    basis set group =>   4
Atom  84H    basis set group =>   4
Atom  85H    basis set group =>   4
Atom  86H    basis set group =>   4
Atom  87H    basis set group =>   4
Atom  88H    basis set group =>   4
Atom  89H    basis set group =>   4
Atom  90H    basis set group =>   4
Atom  91H    basis set group =>   4
Atom  92H    basis set group =>   4
Atom  93H    basis set group =>   4
Atom  94H    basis set group =>   4
Atom  95H    basis set group =>   4
Atom  96H    basis set group =>   4
Atom  97H    basis set group =>   4
Atom  98H    basis set group =>   4
Atom  99H    basis set group =>   4
Atom 100H    basis set group =>   4
Atom 101H    basis set group =>   4
Atom 102H    basis set group =>   4
Atom 103H    basis set group =>   4
Atom 104H    basis set group =>   4
Atom 105H    basis set group =>   4
Atom 106H    basis set group =>   4
Atom 107H    basis set group =>   4
Atom 108H    basis set group =>   4
Atom 109H    basis set group =>   4
Atom 110H    basis set group =>   4
Atom 111H    basis set group =>   4
Atom 112H    basis set group =>   4
Atom 113H    basis set group =>   4
Atom 114H    basis set group =>   4
Atom 115H    basis set group =>   4
Atom 116H    basis set group =>   4
Atom 117H    basis set group =>   4
Atom 118H    basis set group =>   4
Atom 119H    basis set group =>   4
Atom 120H    basis set group =>   4
Atom 121H    basis set group =>   4
Atom 122H    basis set group =>   4
Atom 123H    basis set group =>   4
Atom 124H    basis set group =>   4
Atom 125H    basis set group =>   4
Atom 126H    basis set group =>   4
Atom 127H    basis set group =>   4
Atom 128H    basis set group =>   4
Atom 129H    basis set group =>   4
Atom 130H    basis set group =>   4
Atom 131H    basis set group =>   4
Atom 132H    basis set group =>   4
Atom 133H    basis set group =>   4
Atom 134H    basis set group =>   4
Atom 135H    basis set group =>   4
Atom 136H    basis set group =>   4
Atom 137H    basis set group =>   4
Atom 138H    basis set group =>   4
Atom 139H    basis set group =>   4
Atom 140H    basis set group =>   4
Atom 141H    basis set group =>   4
Atom 142H    basis set group =>   4
Atom 143H    basis set group =>   4
Atom 144H    basis set group =>   4
-------------------------------
AUXILIARY BASIS SET INFORMATION
-------------------------------
There are 4 groups of distinct atoms

 Group   1 Type Fe  : 19s5p5d3f3g contracted to 8s5p5d2f3g pattern {121111111/11111/11111/21/111}
 Group   2 Type S   : 14s5p5d2f1g contracted to 8s4p3d1f1g pattern {71111111/2111/311/2/1}
 Group   3 Type C   : 12s5p4d2f1g contracted to 6s4p3d1f1g pattern {711111/2111/211/2/1}
 Group   4 Type H   : 5s2p1d contracted to 3s1p1d pattern {311/2/1}

Atom   0Fe   basis set group =>   1
Atom   1S    basis set group =>   2
Atom   2S    basis set group =>   2
Atom   3S    basis set group =>   2
Atom   4C    basis set group =>   3
Atom   5C    basis set group =>   3
Atom   6C    basis set group =>   3
Atom   7C    basis set group =>   3
Atom   8C    basis set group =>   3
Atom   9C    basis set group =>   3
Atom  10C    basis set group =>   3
Atom  11C    basis set group =>   3
Atom  12C    basis set group =>   3
Atom  13C    basis set group =>   3
Atom  14C    basis set group =>   3
Atom  15C    basis set group =>   3
Atom  16C    basis set group =>   3
Atom  17C    basis set group =>   3
Atom  18C    basis set group =>   3
Atom  19C    basis set group =>   3
Atom  20C    basis set group =>   3
Atom  21C    basis set group =>   3
Atom  22C    basis set group =>   3
Atom  23C    basis set group =>   3
Atom  24C    basis set group =>   3
Atom  25C    basis set group =>   3
Atom  26C    basis set group =>   3
Atom  27C    basis set group =>   3
Atom  28C    basis set group =>   3
Atom  29C    basis set group =>   3
Atom  30C    basis set group =>   3
Atom  31C    basis set group =>   3
Atom  32C    basis set group =>   3
Atom  33C    basis set group =>   3
Atom  34C    basis set group =>   3
Atom  35C    basis set group =>   3
Atom  36C    basis set group =>   3
Atom  37C    basis set group =>   3
Atom  38C    basis set group =>   3
Atom  39C    basis set group =>   3
Atom  40C    basis set group =>   3
Atom  41C    basis set group =>   3
Atom  42C    basis set group =>   3
Atom  43C    basis set group =>   3
Atom  44C    basis set group =>   3
Atom  45C    basis set group =>   3
Atom  46C    basis set group =>   3
Atom  47C    basis set group =>   3
Atom  48C    basis set group =>   3
Atom  49C    basis set group =>   3
Atom  50C    basis set group =>   3
Atom  51C    basis set group =>   3
Atom  52C    basis set group =>   3
Atom  53C    basis set group =>   3
Atom  54C    basis set group =>   3
Atom  55C    basis set group =>   3
Atom  56C    basis set group =>   3
Atom  57C    basis set group =>   3
Atom  58H    basis set group =>   4
Atom  59H    basis set group =>   4
Atom  60H    basis set group =>   4
Atom  61H    basis set group =>   4
Atom  62H    basis set group =>   4
Atom  63H    basis set group =>   4
Atom  64H    basis set group =>   4
Atom  65H    basis set group =>   4
Atom  66H    basis set group =>   4
Atom  67H    basis set group =>   4
Atom  68H    basis set group =>   4
Atom  69H    basis set group =>   4
Atom  70H    basis set group =>   4
Atom  71H    basis set group =>   4
Atom  72H    basis set group =>   4
Atom  73H    basis set group =>   4
Atom  74H    basis set group =>   4
Atom  75H    basis set group =>   4
Atom  76H    basis set group =>   4
Atom  77H    basis set group =>   4
Atom  78H    basis set group =>   4
Atom  79H    basis set group =>   4
Atom  80H    basis set group =>   4
Atom  81H    basis set group =>   4
Atom  82H    basis set group =>   4
Atom  83H    basis set group =>   4
Atom  84H    basis set group =>   4
Atom  85H    basis set group =>   4
Atom  86H    basis set group =>   4
Atom  87H    basis set group =>   4
Atom  88H    basis set group =>   4
Atom  89H    basis set group =>   4
Atom  90H    basis set group =>   4
Atom  91H    basis set group =>   4
Atom  92H    basis set group =>   4
Atom  93H    basis set group =>   4
Atom  94H    basis set group =>   4
Atom  95H    basis set group =>   4
Atom  96H    basis set group =>   4
Atom  97H    basis set group =>   4
Atom  98H    basis set group =>   4
Atom  99H    basis set group =>   4
Atom 100H    basis set group =>   4
Atom 101H    basis set group =>   4
Atom 102H    basis set group =>   4
Atom 103H    basis set group =>   4
Atom 104H    basis set group =>   4
Atom 105H    basis set group =>   4
Atom 106H    basis set group =>   4
Atom 107H    basis set group =>   4
Atom 108H    basis set group =>   4
Atom 109H    basis set group =>   4
Atom 110H    basis set group =>   4
Atom 111H    basis set group =>   4
Atom 112H    basis set group =>   4
Atom 113H    basis set group =>   4
Atom 114H    basis set group =>   4
Atom 115H    basis set group =>   4
Atom 116H    basis set group =>   4
Atom 117H    basis set group =>   4
Atom 118H    basis set group =>   4
Atom 119H    basis set group =>   4
Atom 120H    basis set group =>   4
Atom 121H    basis set group =>   4
Atom 122H    basis set group =>   4
Atom 123H    basis set group =>   4
Atom 124H    basis set group =>   4
Atom 125H    basis set group =>   4
Atom 126H    basis set group =>   4
Atom 127H    basis set group =>   4
Atom 128H    basis set group =>   4
Atom 129H    basis set group =>   4
Atom 130H    basis set group =>   4
Atom 131H    basis set group =>   4
Atom 132H    basis set group =>   4
Atom 133H    basis set group =>   4
Atom 134H    basis set group =>   4
Atom 135H    basis set group =>   4
Atom 136H    basis set group =>   4
Atom 137H    basis set group =>   4
Atom 138H    basis set group =>   4
Atom 139H    basis set group =>   4
Atom 140H    basis set group =>   4
Atom 141H    basis set group =>   4
Atom 142H    basis set group =>   4
Atom 143H    basis set group =>   4
Atom 144H    basis set group =>   4
------------------------------------------------------------------------------
                           ORCA GTO INTEGRAL CALCULATION
                           -- RI-GTO INTEGRALS CHOSEN --
------------------------------------------------------------------------------

                         BASIS SET STATISTICS AND STARTUP INFO

Gaussian basis set:
 # of primitive gaussian shells          ... 1166
 # of primitive gaussian functions       ... 2086
 # of contracted shells                  ...  620
 # of contracted basis functions         ... 1276
 Highest angular momentum                ...    3
 Maximum contraction depth               ...    6
Auxiliary gaussian basis set:
 # of primitive gaussian shells          ... 2108
 # of primitive gaussian functions       ... 5510
 # of contracted shells                  ... 1319
 # of contracted aux-basis functions     ... 3845
 Highest angular momentum                ...    4
 Maximum contraction depth               ...   12
Ratio of auxiliary to basis functions    ...  3.01
Integral package used                  ... LIBINT
 One Electron integrals                  ... done
 Ordering auxiliary basis shells         ... done
 Integral threshhold             Thresh  ...  1.000e-10
 Primitive cut-off               TCut    ...  1.000e-11
 Pre-screening matrix                    ... done
 Shell pair data                         ... 
 Ordering of the shell pairs             ... done (   0.020 sec) 88262 of 192510 pairs
 Determination of significant pairs      ... done (   0.000 sec)
 Creation of shell pair data             ... done (   0.010 sec)
 Storage of shell pair data              ... done (   0.012 sec)
 Shell pair data done in (   0.043 sec)
 Computing two index integrals           ... done
 Cholesky decomposition of the V-matrix  ... done


Timings:
 Total evaluation time                   ...   3.006 sec (  0.050 min)
 One electron matrix time                ...   1.274 sec (  0.021 min) = 42.4%
 Schwartz matrix evaluation time         ...   0.753 sec (  0.013 min) = 25.1%
 Two index repulsion integral time       ...   0.303 sec (  0.005 min) = 10.1%
 Cholesky decomposition of V             ...   0.612 sec (  0.010 min) = 20.4%
 Three index repulsion integral time     ...   0.000 sec (  0.000 min) =  0.0%

-------------------------------------------------------------------------------
                                 ORCA SCF
-------------------------------------------------------------------------------

------------
SCF SETTINGS
------------
Hamiltonian:
 Density Functional     Method          .... DFT(GTOs)
 Exchange Functional    Exchange        .... B88
   X-Alpha parameter    XAlpha          ....  0.666667
   Becke's b parameter  XBeta           ....  0.004200
 Correlation Functional Correlation     .... P86
 LDA part of GGA corr.  LDAOpt          .... PW91-LDA
 Gradients option       PostSCFGGA      .... off
   Density functional embedding theory  .... OFF
 RI-approximation to the Coulomb term is turned on
   Number of auxiliary basis functions  .... 3845


General Settings:
 Integral files         IntName         .... moess
 Hartree-Fock type      HFTyp           .... UHF
 Total Charge           Charge          ....   -1
 Multiplicity           Mult            ....    5
 Number of Electrons    NEL             ....  486
 Basis Dimension        Dim             .... 1276
 Nuclear Repulsion      ENuc            ....  11083.6780375475 Eh

Convergence Acceleration:
 DIIS                   CNVDIIS         .... on
   Start iteration      DIISMaxIt       ....    12
   Startup error        DIISStart       ....  0.200000
   # of expansion vecs  DIISMaxEq       ....     5
   Bias factor          DIISBfac        ....   1.050
   Max. coefficient     DIISMaxC        ....  10.000
 Newton-Raphson         CNVNR           .... off
 SOSCF                  CNVSOSCF        .... off
 Level Shifting         CNVShift        .... on
   Level shift para.    LevelShift      ....    0.2500
   Turn off err/grad.   ShiftErr        ....    0.0010
 Zerner damping         CNVZerner       .... off
 Static damping         CNVDamp         .... on
   Fraction old density DampFac         ....    0.7000
   Max. Damping (<1)    DampMax         ....    0.9800
   Min. Damping (>=0)   DampMin         ....    0.0000
   Turn off err/grad.   DampErr         ....    0.1000
 Fernandez-Rico         CNVRico         .... off

SCF Procedure:
 Maximum # iterations   MaxIter         ....   125
 SCF integral mode      SCFMode         .... Direct
   Integral package                     .... LIBINT
 Reset frequency        DirectResetFreq ....    20
 Integral Threshold     Thresh          ....  1.000e-10 Eh
 Primitive CutOff       TCut            ....  1.000e-11 Eh

Convergence Tolerance:
 Convergence Check Mode ConvCheckMode   .... Total+1el-Energy
 Convergence forced     ConvForced      .... 0
 Energy Change          TolE            ....  1.000e-06 Eh
 1-El. energy change                    ....  1.000e-03 Eh
 DIIS Error             TolErr          ....  1.000e-06


Diagonalization of the overlap matrix:
Smallest eigenvalue                        ... 2.008e-04
Time for diagonalization                   ...    0.420 sec
Threshold for overlap eigenvalues          ... 1.000e-08
Number of eigenvalues below threshold      ... 0
Time for construction of square roots      ...    0.236 sec
Total time needed                          ...    0.662 sec

-------------------
DFT GRID GENERATION
-------------------

General Integration Accuracy     IntAcc      ...  4.340
Radial Grid Type                 RadialGrid  ... Gauss-Chebyshev
Angular Grid (max. acc.)         AngularGrid ... Lebedev-110
Angular grid pruning method      GridPruning ... 3 (G Style)
Weight generation scheme         WeightScheme... Becke
Basis function cutoff            BFCut       ...    1.0000e-10
Integration weight cutoff        WCut        ...    1.0000e-14
Grids for H and He will be reduced by one unit

# of grid points (after initial pruning)     ... 166832 (   0.2 sec)
# of grid points (after weights+screening)   ... 140882 (   7.7 sec)
nearest neighbour list constructed           ...    0.0 sec
Grid point re-assignment to atoms done       ...    0.0 sec
Grid point division into batches done        ...    0.1 sec
Reduced shell lists constructed in    2.7 sec

Total number of grid points                  ...   140882
Total number of batches                      ...     2286
Average number of points per batch           ...       61
Average number of grid points per atom       ...      972
Average number of shells per batch           ...   147.69 (23.82%)
Average number of basis functions per batch  ...   269.33 (21.11%)
Average number of large shells per batch     ...    76.95 (52.10%)
Average number of large basis fcns per batch ...   144.60 (53.69%)
Maximum spatial batch extension              ...  25.56, 20.78, 23.04 au
Average spatial batch extension              ...   2.86,  2.88,  2.86 au

Time for grid setup =   10.659 sec

------------------------------
INITIAL GUESS: MODEL POTENTIAL
------------------------------
Loading Hartree-Fock densities                     ... done
Calculating cut-offs                               ... done
Setting up the integral package                    ... done
Initializing the effective Hamiltonian             ... done
Starting the Coulomb interaction                   ... done (  15.4 sec)
Reading the grid                                   ... done
Mapping shells                                     ... done
Starting the XC term evaluation                    ... done (   3.8 sec)
  promolecular density results
     # of electrons  =    484.997078472
     EX              =   -433.020961172
     EC              =    -18.340869531
     EX+EC           =   -451.361830702
Transforming the Hamiltonian                       ... done (   0.2 sec)
Diagonalizing the Hamiltonian                      ... done (   0.4 sec)
Back transforming the eigenvectors                 ... done (   0.1 sec)
Now organizing SCF variables                       ... done
                      ------------------
                      INITIAL GUESS DONE (  30.9 sec)
                      ------------------
--------------
SCF ITERATIONS
--------------
ITER       Energy         Delta-E        Max-DP      RMS-DP      [F,P]     Damp
               ***  Starting incremental Fock matrix formation  ***
  0  -4565.2031500065   0.000000000000 0.08632810  0.00075187  0.2171027 0.7000
  1  -4565.9646079928  -0.761457986277 0.02554782  0.00034243  0.1296920 0.7000
                               ***Turning on DIIS***
  2  -4566.2532143626  -0.288606369819 0.11431553  0.00079346  0.0852484 0.0000
  3  -4566.5312119131  -0.277997550513 0.02146670  0.00009325  0.2876733 0.7000
  4  -4566.6442407136  -0.113028800479 0.02106049  0.00009621  0.2030865 0.7000
  5  -4566.7262008405  -0.081960126850 0.01543300  0.00007009  0.1219636 0.7000
  6  -4566.7676449453  -0.041444104843 0.03459766  0.00017469  0.0756276 0.0000
  7  -4566.8180324986  -0.050387553314 0.01062546  0.00003895  0.0052604 0.0000
  8  -4566.8187848456  -0.000752346979 0.01086396  0.00003305  0.0180374 0.0000
  9  -4566.8193923884  -0.000607542770 0.00195496  0.00001015  0.0038376 0.0000
 10  -4566.8194847767  -0.000092388358 0.00187894  0.00000712  0.0012899 0.0000
 11  -4566.8195163859  -0.000031609134 0.00131473  0.00000477  0.0011968 0.0000
 12  -4566.8195303008  -0.000013914934 0.00195276  0.00000849  0.0007664 0.0000
 13  -4566.8195403682  -0.000010067433 0.00061624  0.00000228  0.0004490 0.0000
 14  -4566.8195370638   0.000003304453 0.00032011  0.00000086  0.0013487 0.0000
 15  -4566.8195393637  -0.000002299912 0.00039052  0.00000135  0.0006312 0.0000
 16  -4566.8195400018  -0.000000638078 0.00019179  0.00000057  0.0004331 0.0000
 17  -4566.8195404321  -0.000000430386 0.00019295  0.00000038  0.0000566 0.0000
                 **** Energy Check signals convergence ****

               *****************************************************
               *                     SUCCESS                       *
               *           SCF CONVERGED AFTER  18 CYCLES          *
               *****************************************************

Setting up the final grid:

General Integration Accuracy     IntAcc      ...  4.670
Radial Grid Type                 RadialGrid  ... Gauss-Chebyshev
Angular Grid (max. acc.)         AngularGrid ... Lebedev-302
Angular grid pruning method      GridPruning ... 3 (G Style)
Weight generation scheme         WeightScheme... Becke
Basis function cutoff            BFCut       ...    1.0000e-10
Integration weight cutoff        WCut        ...    1.0000e-14
Grids for H and He will be reduced by one unit

# of grid points (after initial pruning)     ... 660904 (   0.8 sec)
# of grid points (after weights+screening)   ... 540949 (  30.6 sec)
nearest neighbour list constructed           ...    0.0 sec
Grid point re-assignment to atoms done       ...    0.1 sec
Grid point division into batches done        ...    1.4 sec
Reduced shell lists constructed in    9.9 sec

Total number of grid points                  ...   540949
Total number of batches                      ...     8525
Average number of points per batch           ...       63
Average number of grid points per atom       ...     3731
Average number of shells per batch           ...   131.65 (21.23%)
Average number of basis functions per batch  ...   238.44 (18.69%)
Average number of large shells per batch     ...    68.04 (51.69%)
Average number of large basis fcns per batch ...   126.39 (53.01%)
Maximum spatial batch extension              ...  19.70, 20.11, 20.57 au
Average spatial batch extension              ...   1.86,  1.88,  1.86 au

Final grid set up in   41.3 sec
Final integration                            ... done (  26.6 sec)
Change in XC energy                          ...    -0.000003259
Integrated number of electrons               ...   486.000338017
Previous integrated no of electrons          ...   486.016113474

----------------
TOTAL SCF ENERGY
----------------

Total Energy       :        -4566.81954419 Eh         -124269.47754 eV

Components:
Nuclear Repulsion  :        11083.67803755 Eh          301602.21256 eV
Electronic Energy  :       -15650.49758174 Eh         -425871.69010 eV
One Electron Energy:       -28391.31476876 Eh         -772566.95140 eV
Two Electron Energy:        12740.81718703 Eh          346695.26131 eV

Virial components:
Potential Energy   :        -9100.26927652 Eh         -247630.91633 eV
Kinetic Energy     :         4533.44973233 Eh          123361.43879 eV
Virial Ratio       :            2.00736080


DFT components:
N(Alpha)           :      245.000174915231 electrons
N(Beta)            :      241.000163101899 electrons
N(Total)           :      486.000338017130 electrons
E(X)               :     -440.160493417141 Eh       
E(C)               :      -18.279105349076 Eh       
E(XC)              :     -458.439598766216 Eh       
DFET-embed. en.    :        0.000000000000 Eh       

---------------
SCF CONVERGENCE
---------------

  Last Energy change         ...   -4.9741e-07  Tolerance :   1.0000e-06
  Last MAX-Density change    ...    2.6998e-04  Tolerance :   1.0000e-05
  Last RMS-Density change    ...    4.5670e-07  Tolerance :   1.0000e-06
  Last DIIS Error            ...    5.0785e-05  Tolerance :   1.0000e-06

             **** THE GBW FILE WAS UPDATED (moess.gbw) ****
             **** DENSITY FILE WAS UPDATED (moess.scfp.tmp) ****
             **** ENERGY FILE WAS UPDATED (moess.en.tmp) ****
----------------------
UHF SPIN CONTAMINATION
----------------------

Warning: in a DFT calculation there is little theoretical justification to 
         calculate <S**2> as in Hartree-Fock theory. We will do it anyways
         but you should keep in mind that the values have only limited relevance

Expectation value of <S**2>     :     6.017692
Ideal value S*(S+1) for S=2.0   :     6.000000
Deviation                       :     0.017692

----------------
ORBITAL ENERGIES
----------------
                 SPIN UP ORBITALS
  NO   OCC          E(Eh)            E(eV) 
   0   1.0000    -254.693171     -6930.5535 
   1   1.0000     -87.950028     -2393.2419 
   2   1.0000     -87.949510     -2393.2278 
   3   1.0000     -87.949333     -2393.2230 
   4   1.0000     -29.469080      -801.8944 
   5   1.0000     -25.420133      -691.7170 
   6   1.0000     -25.418389      -691.6695 
   7   1.0000     -25.402199      -691.2290 
   8   1.0000      -9.857002      -268.2227 
   9   1.0000      -9.856336      -268.2045 
  10   1.0000      -9.854666      -268.1591 
  11   1.0000      -9.846176      -267.9281 
  12   1.0000      -9.846080      -267.9254 
  13   1.0000      -9.844262      -267.8760 
  14   1.0000      -9.839333      -267.7419 
  15   1.0000      -9.838696      -267.7245 
  16   1.0000      -9.838183      -267.7106 
  17   1.0000      -9.837987      -267.7052 
  18   1.0000      -9.837839      -267.7012 
  19   1.0000      -9.837337      -267.6876 
  20   1.0000      -9.834396      -267.6075 
  21   1.0000      -9.834340      -267.6060 
  22   1.0000      -9.833858      -267.5929 
  23   1.0000      -9.833603      -267.5859 
  24   1.0000      -9.832366      -267.5523 
  25   1.0000      -9.832119      -267.5456 
  26   1.0000      -9.831501      -267.5288 
  27   1.0000      -9.830475      -267.5008 
  28   1.0000      -9.829534      -267.4752 
  29   1.0000      -9.828931      -267.4588 
  30   1.0000      -9.828524      -267.4477 
  31   1.0000      -9.828316      -267.4421 
  32   1.0000      -9.827618      -267.4231 
  33   1.0000      -9.826933      -267.4044 
  34   1.0000      -9.826738      -267.3991 
  35   1.0000      -9.823724      -267.3171 
  36   1.0000      -9.822972      -267.2967 
  37   1.0000      -9.821872      -267.2667 
  38   1.0000      -9.818443      -267.1734 
  39   1.0000      -9.817909      -267.1589 
  40   1.0000      -9.817508      -267.1480 
  41   1.0000      -9.817480      -267.1472 
  42   1.0000      -9.817361      -267.1440 
  43   1.0000      -9.816291      -267.1148 
  44   1.0000      -9.813666      -267.0434 
  45   1.0000      -9.812987      -267.0249 
  46   1.0000      -9.812818      -267.0203 
  47   1.0000      -9.811827      -266.9934 
  48   1.0000      -9.811608      -266.9874 
  49   1.0000      -9.811205      -266.9765 
  50   1.0000      -9.804951      -266.8063 
  51   1.0000      -9.804602      -266.7968 
  52   1.0000      -9.803168      -266.7578 
  53   1.0000      -9.802970      -266.7524 
  54   1.0000      -9.802824      -266.7484 
  55   1.0000      -9.802674      -266.7443 
  56   1.0000      -9.799699      -266.6634 
  57   1.0000      -9.799006      -266.6445 
  58   1.0000      -9.798869      -266.6408 
  59   1.0000      -9.798365      -266.6271 
  60   1.0000      -9.796502      -266.5764 
  61   1.0000      -9.795890      -266.5597 
  62   1.0000      -7.543847      -205.2785 
  63   1.0000      -7.543342      -205.2648 
  64   1.0000      -7.543293      -205.2634 
  65   1.0000      -5.571572      -151.6102 
  66   1.0000      -5.571210      -151.6003 
  67   1.0000      -5.571114      -151.5977 
  68   1.0000      -5.566477      -151.4715 
  69   1.0000      -5.565810      -151.4534 
  70   1.0000      -5.565777      -151.4525 
  71   1.0000      -5.563149      -151.3810 
  72   1.0000      -5.562674      -151.3681 
  73   1.0000      -5.562609      -151.3663 
  74   1.0000      -3.217121       -87.5423 
  75   1.0000      -2.047084       -55.7040 
  76   1.0000      -2.043809       -55.6149 
  77   1.0000      -2.005601       -54.5752 
  78   1.0000      -0.694689       -18.9035 
  79   1.0000      -0.693970       -18.8839 
  80   1.0000      -0.693237       -18.8639 
  81   1.0000      -0.665828       -18.1181 
  82   1.0000      -0.664807       -18.0903 
  83   1.0000      -0.664121       -18.0717 
  84   1.0000      -0.652946       -17.7676 
  85   1.0000      -0.652189       -17.7470 
  86   1.0000      -0.651599       -17.7309 
  87   1.0000      -0.624851       -17.0031 
  88   1.0000      -0.624244       -16.9866 
  89   1.0000      -0.623531       -16.9671 
  90   1.0000      -0.584368       -15.9015 
  91   1.0000      -0.583208       -15.8699 
  92   1.0000      -0.582667       -15.8552 
  93   1.0000      -0.564465       -15.3599 
  94   1.0000      -0.564100       -15.3499 
  95   1.0000      -0.562961       -15.3190 
  96   1.0000      -0.543391       -14.7864 
  97   1.0000      -0.542609       -14.7651 
  98   1.0000      -0.541670       -14.7396 
  99   1.0000      -0.540946       -14.7199 
 100   1.0000      -0.540645       -14.7117 
 101   1.0000      -0.539435       -14.6788 
 102   1.0000      -0.523674       -14.2499 
 103   1.0000      -0.523463       -14.2442 
 104   1.0000      -0.522622       -14.2213 
 105   1.0000      -0.521892       -14.2014 
 106   1.0000      -0.520795       -14.1716 
 107   1.0000      -0.520508       -14.1637 
 108   1.0000      -0.517023       -14.0689 
 109   1.0000      -0.516591       -14.0572 
 110   1.0000      -0.515142       -14.0177 
 111   1.0000      -0.514682       -14.0052 
 112   1.0000      -0.513026       -13.9601 
 113   1.0000      -0.512748       -13.9526 
 114   1.0000      -0.508021       -13.8239 
 115   1.0000      -0.505812       -13.7639 
 116   1.0000      -0.505280       -13.7494 
 117   1.0000      -0.452549       -12.3145 
 118   1.0000      -0.451444       -12.2844 
 119   1.0000      -0.450517       -12.2592 
 120   1.0000      -0.439976       -11.9724 
 121   1.0000      -0.438474       -11.9315 
 122   1.0000      -0.437319       -11.9000 
 123   1.0000      -0.429410       -11.6848 
 124   1.0000      -0.428463       -11.6591 
 125   1.0000      -0.426956       -11.6181 
 126   1.0000      -0.379335       -10.3222 
 127   1.0000      -0.377317       -10.2673 
 128   1.0000      -0.375817       -10.2265 
 129   1.0000      -0.374976       -10.2036 
 130   1.0000      -0.372522       -10.1369 
 131   1.0000      -0.371268       -10.1027 
 132   1.0000      -0.359201        -9.7744 
 133   1.0000      -0.358433        -9.7534 
 134   1.0000      -0.357071        -9.7164 
 135   1.0000      -0.336782        -9.1643 
 136   1.0000      -0.336199        -9.1484 
 137   1.0000      -0.335391        -9.1265 
 138   1.0000      -0.323982        -8.8160 
 139   1.0000      -0.323439        -8.8012 
 140   1.0000      -0.322622        -8.7790 
 141   1.0000      -0.322440        -8.7740 
 142   1.0000      -0.321747        -8.7552 
 143   1.0000      -0.320406        -8.7187 
 144   1.0000      -0.315424        -8.5831 
 145   1.0000      -0.314918        -8.5694 
 146   1.0000      -0.314156        -8.5486 
 147   1.0000      -0.312532        -8.5044 
 148   1.0000      -0.310877        -8.4594 
 149   1.0000      -0.310430        -8.4472 
 150   1.0000      -0.306061        -8.3283 
 151   1.0000      -0.304295        -8.2803 
 152   1.0000      -0.302822        -8.2402 
 153   1.0000      -0.301838        -8.2134 
 154   1.0000      -0.300971        -8.1898 
 155   1.0000      -0.300645        -8.1810 
 156   1.0000      -0.299436        -8.1481 
 157   1.0000      -0.299275        -8.1437 
 158   1.0000      -0.297882        -8.1058 
 159   1.0000      -0.286923        -7.8076 
 160   1.0000      -0.286452        -7.7948 
 161   1.0000      -0.284561        -7.7433 
 162   1.0000      -0.280530        -7.6336 
 163   1.0000      -0.280126        -7.6226 
 164   1.0000      -0.279792        -7.6135 
 165   1.0000      -0.277996        -7.5647 
 166   1.0000      -0.277780        -7.5588 
 167   1.0000      -0.277475        -7.5505 
 168   1.0000      -0.266172        -7.2429 
 169   1.0000      -0.265613        -7.2277 
 170   1.0000      -0.264663        -7.2019 
 171   1.0000      -0.264190        -7.1890 
 172   1.0000      -0.262042        -7.1305 
 173   1.0000      -0.260911        -7.0997 
 174   1.0000      -0.253706        -6.9037 
 175   1.0000      -0.253366        -6.8944 
 176   1.0000      -0.252497        -6.8708 
 177   1.0000      -0.251304        -6.8383 
 178   1.0000      -0.250968        -6.8292 
 179   1.0000      -0.250321        -6.8116 
 180   1.0000      -0.249068        -6.7775 
 181   1.0000      -0.248204        -6.7540 
 182   1.0000      -0.247839        -6.7440 
 183   1.0000      -0.246921        -6.7191 
 184   1.0000      -0.245540        -6.6815 
 185   1.0000      -0.244678        -6.6580 
 186   1.0000      -0.237724        -6.4688 
 187   1.0000      -0.233606        -6.3568 
 188   1.0000      -0.232948        -6.3388 
 189   1.0000      -0.232654        -6.3308 
 190   1.0000      -0.231391        -6.2965 
 191   1.0000      -0.231020        -6.2864 
 192   1.0000      -0.230464        -6.2712 
 193   1.0000      -0.230200        -6.2641 
 194   1.0000      -0.229676        -6.2498 
 195   1.0000      -0.229139        -6.2352 
 196   1.0000      -0.228661        -6.2222 
 197   1.0000      -0.227653        -6.1947 
 198   1.0000      -0.226452        -6.1621 
 199   1.0000      -0.225779        -6.1438 
 200   1.0000      -0.225294        -6.1306 
 201   1.0000      -0.224078        -6.0975 
 202   1.0000      -0.223938        -6.0937 
 203   1.0000      -0.222896        -6.0653 
 204   1.0000      -0.215654        -5.8682 
 205   1.0000      -0.214699        -5.8423 
 206   1.0000      -0.213680        -5.8145 
 207   1.0000      -0.212616        -5.7856 
 208   1.0000      -0.212084        -5.7711 
 209   1.0000      -0.210993        -5.7414 
 210   1.0000      -0.203499        -5.5375 
 211   1.0000      -0.202025        -5.4974 
 212   1.0000      -0.201357        -5.4792 
 213   1.0000      -0.200799        -5.4640 
 214   1.0000      -0.198596        -5.4041 
 215   1.0000      -0.196737        -5.3535 
 216   1.0000      -0.195333        -5.3153 
 217   1.0000      -0.194850        -5.3021 
 218   1.0000      -0.194204        -5.2845 
 219   1.0000      -0.193956        -5.2778 
 220   1.0000      -0.191149        -5.2014 
 221   1.0000      -0.190345        -5.1795 
 222   1.0000      -0.183781        -5.0009 
 223   1.0000      -0.183111        -4.9827 
 224   1.0000      -0.182030        -4.9533 
 225   1.0000      -0.179436        -4.8827 
 226   1.0000      -0.177170        -4.8210 
 227   1.0000      -0.175937        -4.7875 
 228   1.0000      -0.167434        -4.5561 
 229   1.0000      -0.165788        -4.5113 
 230   1.0000      -0.158916        -4.3243 
 231   1.0000      -0.142760        -3.8847 
 232   1.0000      -0.142062        -3.8657 
 233   1.0000      -0.129327        -3.5192 
 234   1.0000      -0.127251        -3.4627 
 235   1.0000      -0.124697        -3.3932 
 236   1.0000      -0.123715        -3.3664 
 237   1.0000      -0.122246        -3.3265 
 238   1.0000      -0.109791        -2.9876 
 239   1.0000      -0.087873        -2.3911 
 240   1.0000      -0.083411        -2.2697 
 241   1.0000      -0.072849        -1.9823 
 242   1.0000      -0.069438        -1.8895 
 243   1.0000      -0.067187        -1.8282 
 244   1.0000      -0.066243        -1.8026 
 245   0.0000       0.047097         1.2816 
 246   0.0000       0.054181         1.4743 
 247   0.0000       0.055484         1.5098 
 248   0.0000       0.057052         1.5525 
 249   0.0000       0.057836         1.5738 
 250   0.0000       0.059567         1.6209 
 251   0.0000       0.096391         2.6229 
 252   0.0000       0.097801         2.6613 
 253   0.0000       0.098384         2.6772 
 254   0.0000       0.105363         2.8671 
 255   0.0000       0.113468         3.0876 
 256   0.0000       0.121773         3.3136 
 257   0.0000       0.122036         3.3208 
 258   0.0000       0.123166         3.3515 
 259   0.0000       0.124280         3.3818 
 260   0.0000       0.125012         3.4017 
 261   0.0000       0.125728         3.4212 
 262   0.0000       0.133960         3.6452 
 263   0.0000       0.134035         3.6473 
 264   0.0000       0.139855         3.8056 
 265   0.0000       0.142246         3.8707 
[...]
  7 C      5.8552     6.0000     0.1448     3.6668     3.6666     0.0002
  8 C      6.1160     6.0000    -0.1160     3.8465     3.8465     0.0000
  9 C      5.8886     6.0000     0.1114     3.8669     3.8667     0.0002
 10 C      6.3084     6.0000    -0.3084     4.2310     4.2310     0.0000
 11 C      5.9140     6.0000     0.0860     3.9853     3.9853     0.0000
 12 C      5.9565     6.0000     0.0435     3.8945     3.8945     0.0000
 13 C      5.9437     6.0000     0.0563     3.8994     3.8994     0.0000
 14 C      6.2954     6.0000    -0.2954     4.2213     4.2213     0.0000
 15 C      5.9433     6.0000     0.0567     3.9188     3.9188     0.0000
 16 C      5.9407     6.0000     0.0593     3.9828     3.9828     0.0000
 17 C      5.9501     6.0000     0.0499     3.9301     3.9301     0.0000
 18 C      6.3109     6.0000    -0.3109     4.2278     4.2278     0.0000
 19 C      5.9196     6.0000     0.0804     3.9922     3.9922     0.0000
 20 C      5.9395     6.0000     0.0605     3.8961     3.8961     0.0000
 21 C      5.9498     6.0000     0.0502     3.8851     3.8850     0.0001
 22 C      6.0995     6.0000    -0.0995     3.9071     3.9069     0.0003
 23 C      5.8649     6.0000     0.1351     3.8139     3.8137     0.0003
 24 C      6.1124     6.0000    -0.1124     3.8746     3.8746     0.0000
 25 C      5.8428     6.0000     0.1572     3.6372     3.6370     0.0002
 26 C      6.1118     6.0000    -0.1118     3.8517     3.8517     0.0000
 27 C      5.8896     6.0000     0.1104     3.8790     3.8788     0.0002
 28 C      6.3199     6.0000    -0.3199     4.2429     4.2429     0.0000
 29 C      5.9230     6.0000     0.0770     3.9904     3.9904     0.0000
 30 C      5.9458     6.0000     0.0542     3.9013     3.9013     0.0000
 31 C      5.9399     6.0000     0.0601     3.8963     3.8963     0.0000
 32 C      6.3108     6.0000    -0.3108     4.2482     4.2482     0.0000
 33 C      5.9346     6.0000     0.0654     3.9198     3.9198     0.0000
 34 C      5.9282     6.0000     0.0718     3.9819     3.9819     0.0000
 35 C      5.9464     6.0000     0.0536     3.9213     3.9213     0.0000
 36 C      6.3218     6.0000    -0.3218     4.2669     4.2669     0.0000
 37 C      5.9532     6.0000     0.0468     3.8924     3.8924     0.0000
 38 C      5.9308     6.0000     0.0692     3.9977     3.9977     0.0000
 39 C      5.9225     6.0000     0.0775     3.8808     3.8808     0.0000
 40 C      6.0837     6.0000    -0.0837     3.9048     3.9045     0.0003
 41 C      5.8799     6.0000     0.1201     3.8224     3.8222     0.0002
 42 C      6.1136     6.0000    -0.1136     3.8619     3.8619     0.0000
 43 C      5.8380     6.0000     0.1620     3.6338     3.6336     0.0002
 44 C      6.1360     6.0000    -0.1360     3.8522     3.8522     0.0000
 45 C      5.8916     6.0000     0.1084     3.8759     3.8757     0.0002
 46 C      6.3097     6.0000    -0.3097     4.2197     4.2197     0.0000
 47 C      5.9221     6.0000     0.0779     3.9920     3.9920     0.0000
 48 C      5.9473     6.0000     0.0527     3.8954     3.8954     0.0000
 49 C      5.9391     6.0000     0.0609     3.8895     3.8895     0.0001
 50 C      6.2873     6.0000    -0.2873     4.2166     4.2166     0.0000
 51 C      5.9519     6.0000     0.0481     3.9219     3.9219     0.0000
 52 C      5.9514     6.0000     0.0486     3.9878     3.9878     0.0000
 53 C      5.9489     6.0000     0.0511     3.9278     3.9278     0.0000
 54 C      6.3114     6.0000    -0.3114     4.2275     4.2275     0.0000
 55 C      5.9356     6.0000     0.0644     3.8894     3.8894     0.0000
 56 C      5.9463     6.0000     0.0537     3.8976     3.8976     0.0000
 57 C      5.9302     6.0000     0.0698     3.9950     3.9950     0.0000
 58 H      0.9815     1.0000     0.0185     0.9949     0.9949     0.0000
 59 H      1.0034     1.0000    -0.0034     0.9922     0.9922     0.0000
 60 H      0.9882     1.0000     0.0118     1.0022     1.0022     0.0000
 61 H      0.9820     1.0000     0.0180     0.9932     0.9932    -0.0000
 62 H      1.0052     1.0000    -0.0052     0.9886     0.9886     0.0000
 63 H      0.9770     1.0000     0.0230     0.9947     0.9947     0.0000
 64 H      0.9889     1.0000     0.0111     1.0031     1.0031     0.0000
 65 H      1.0060     1.0000    -0.0060     0.9922     0.9922     0.0000
 66 H      0.9731     1.0000     0.0269     0.9952     0.9952     0.0000
 67 H      0.9947     1.0000     0.0053     0.9916     0.9916     0.0000
 68 H      1.0016     1.0000    -0.0016     0.9935     0.9935     0.0000
 69 H      0.9880     1.0000     0.0120     0.9890     0.9890     0.0000
 70 H      1.0057     1.0000    -0.0057     0.9943     0.9943     0.0000
 71 H      0.9589     1.0000     0.0411     1.0391     1.0390     0.0000
 72 H      0.9994     1.0000     0.0006     0.9913     0.9913     0.0000
 73 H      1.0024     1.0000    -0.0024     0.9975     0.9975     0.0000
 74 H      0.9879     1.0000     0.0121     1.0849     1.0846     0.0003
 75 H      0.9874     1.0000     0.0126     1.0022     1.0022     0.0000
 76 H      1.0653     1.0000    -0.0653     1.0122     1.0122     0.0000
 77 H      1.0722     1.0000    -0.0722     1.0340     1.0340     0.0000
 78 H      1.0061     1.0000    -0.0061     0.9920     0.9920     0.0000
 79 H      0.9939     1.0000     0.0061     0.9915     0.9915     0.0000
 80 H      0.9844     1.0000     0.0156     0.9911     0.9911     0.0000
 81 H      0.9985     1.0000     0.0015     0.9922     0.9922     0.0000
 82 H      0.9638     1.0000     0.0362     1.0302     1.0302     0.0000
 83 H      1.0101     1.0000    -0.0101     0.9943     0.9943     0.0000
 84 H      0.9791     1.0000     0.0209     1.0725     1.0724     0.0001
 85 H      1.0127     1.0000    -0.0127     0.9956     0.9956     0.0000
 86 H      0.9795     1.0000     0.0205     1.0136     1.0136     0.0000
 87 H      0.9816     1.0000     0.0184     0.9976     0.9976     0.0000
 88 H      0.9793     1.0000     0.0207     1.0696     1.0695     0.0001
 89 H      1.0063     1.0000    -0.0063     0.9955     0.9955     0.0000
 90 H      0.9968     1.0000     0.0032     0.9921     0.9921     0.0000
 91 H      0.9538     1.0000     0.0462     1.0384     1.0384     0.0000
 92 H      1.0117     1.0000    -0.0117     0.9945     0.9945     0.0000
 93 H      0.9900     1.0000     0.0100     0.9921     0.9921     0.0000
 94 H      0.9936     1.0000     0.0064     0.9916     0.9916     0.0000
 95 H      1.0092     1.0000    -0.0092     0.9923     0.9923     0.0000
 96 H      0.9853     1.0000     0.0147     0.9936     0.9936     0.0000
 97 H      0.9707     1.0000     0.0293     0.9931     0.9931     0.0000
 98 H      1.0034     1.0000    -0.0034     0.9899     0.9899     0.0000
 99 H      1.0811     1.0000    -0.0811     1.0377     1.0377     0.0000
100 H      1.0660     1.0000    -0.0660     1.0130     1.0130     0.0000
101 H      1.0036     1.0000    -0.0036     0.9929     0.9929     0.0000
102 H      0.9838     1.0000     0.0162     0.9986     0.9986     0.0000
103 H      0.9853     1.0000     0.0147     0.9955     0.9955     0.0000
104 H      1.0009     1.0000    -0.0009     0.9907     0.9907     0.0000
105 H      0.9718     1.0000     0.0282     0.9962     0.9962     0.0000
106 H      0.9847     1.0000     0.0153     1.0027     1.0027     0.0000
107 H      0.9956     1.0000     0.0044     0.9928     0.9928     0.0000
108 H      0.9863     1.0000     0.0137     0.9884     0.9884     0.0000
109 H      1.0076     1.0000    -0.0076     0.9930     0.9930     0.0000
110 H      1.0035     1.0000    -0.0035     0.9922     0.9922     0.0000
111 H      1.0098     1.0000    -0.0098     0.9953     0.9953     0.0000
112 H      0.9607     1.0000     0.0393     1.0390     1.0389     0.0000
113 H      0.9727     1.0000     0.0273     1.0019     1.0019     0.0000
114 H      1.0067     1.0000    -0.0067     0.9967     0.9967     0.0000
115 H      0.9845     1.0000     0.0155     1.0788     1.0783     0.0004
116 H      1.0691     1.0000    -0.0691     1.0322     1.0322     0.0000
117 H      1.0586     1.0000    -0.0586     1.0121     1.0121     0.0000
118 H      1.0044     1.0000    -0.0044     0.9938     0.9938     0.0000
119 H      0.9875     1.0000     0.0125     0.9893     0.9893     0.0000
120 H      0.9987     1.0000     0.0013     0.9932     0.9932     0.0000
121 H      0.9815     1.0000     0.0185     0.9989     0.9989     0.0000
122 H      0.9888     1.0000     0.0112     1.0797     1.0794     0.0004
123 H      1.0039     1.0000    -0.0039     0.9971     0.9971     0.0000
124 H      1.0122     1.0000    -0.0122     0.9956     0.9956     0.0000
125 H      1.0019     1.0000    -0.0019     0.9932     0.9932     0.0000
126 H      0.9514     1.0000     0.0486     1.0362     1.0362     0.0000
127 H      0.9829     1.0000     0.0171     0.9903     0.9903     0.0000
128 H      1.0039     1.0000    -0.0039     0.9917     0.9917     0.0000
129 H      0.9947     1.0000     0.0053     0.9918     0.9918     0.0000
130 H      0.9816     1.0000     0.0184     1.0005     1.0005     0.0000
131 H      0.9817     1.0000     0.0183     1.0745     1.0743     0.0002
132 H      1.0086     1.0000    -0.0086     0.9959     0.9959     0.0000
133 H      1.0124     1.0000    -0.0124     0.9963     0.9963     0.0000
134 H      1.0020     1.0000    -0.0020     0.9921     0.9921     0.0000
135 H      0.9510     1.0000     0.0490     1.0381     1.0380     0.0000
136 H      0.9747     1.0000     0.0253     0.9958     0.9958     0.0000
137 H      0.9859     1.0000     0.0141     1.0024     1.0024     0.0000
138 H      0.9990     1.0000     0.0010     0.9924     0.9924     0.0000
139 H      0.9883     1.0000     0.0117     1.0055     1.0055     0.0000
140 H      1.0001     1.0000    -0.0001     0.9929     0.9929     0.0000
141 H      0.9871     1.0000     0.0129     0.9952     0.9952     0.0000
142 H      0.9730     1.0000     0.0270     0.9919     0.9919     0.0000
143 H      0.9986     1.0000     0.0014     0.9909     0.9909     0.0000
144 H      0.9818     1.0000     0.0182     0.9936     0.9936     0.0000

  Mayer bond orders larger than 0.1
B(  0-Fe,  1-S ) :   0.8863 B(  0-Fe,  2-S ) :   0.8829 B(  0-Fe,  3-S ) :   0.8933 
B(  1-S ,  4-C ) :   1.0544 B(  2-S , 22-C ) :   1.0606 B(  3-S , 40-C ) :   1.0579 
B(  4-C ,  5-C ) :   1.3817 B(  4-C ,  9-C ) :   1.3585 B(  5-C ,  6-C ) :   1.3750 
B(  5-C , 10-C ) :   0.9289 B(  6-C ,  7-C ) :   1.3683 B(  6-C , 99-H ) :   0.9351 
B(  7-C ,  8-C ) :   1.3085 B(  7-C , 14-C ) :   0.9320 B(  8-C ,  9-C ) :   1.4208 
B(  8-C ,100-H ) :   0.9506 B(  9-C , 18-C ) :   0.9309 B( 10-C , 11-C ) :   1.0908 
B( 10-C , 12-C ) :   1.0331 B( 10-C , 13-C ) :   1.0265 B( 11-C , 93-H ) :   0.9351 
B( 11-C , 94-H ) :   0.9376 B( 11-C , 95-H ) :   0.9436 B( 12-C , 90-H ) :   0.9587 
B( 12-C , 91-H ) :   0.9410 B( 12-C , 92-H ) :   0.9510 B( 13-C , 87-H ) :   0.9528 
B( 13-C , 88-H ) :   0.9278 B( 13-C , 89-H ) :   0.9491 B( 14-C , 15-C ) :   1.0417 
B( 14-C , 16-C ) :   1.0885 B( 14-C , 17-C ) :   1.0459 B( 15-C ,104-H ) :   0.9559 
B( 15-C ,105-H ) :   0.9574 B( 15-C ,106-H ) :   0.9552 B( 16-C , 96-H ) :   0.9481 
B( 16-C , 97-H ) :   0.9395 B( 16-C , 98-H ) :   0.9457 B( 17-C ,101-H ) :   0.9536 
B( 17-C ,102-H ) :   0.9565 B( 17-C ,103-H ) :   0.9612 B( 18-C , 19-C ) :   1.0918 
B( 18-C , 20-C ) :   1.0343 B( 18-C , 21-C ) :   1.0267 B( 19-C ,107-H ) :   0.9371 
B( 19-C ,108-H ) :   0.9353 B( 19-C ,109-H ) :   0.9449 B( 20-C ,110-H ) :   0.9559 
B( 20-C ,111-H ) :   0.9521 B( 20-C ,112-H ) :   0.9404 B( 21-C ,113-H ) :   0.9493 
B( 21-C ,114-H ) :   0.9468 B( 21-C ,115-H ) :   0.9169 B( 22-C , 23-C ) :   1.3793 
B( 22-C , 27-C ) :   1.3517 B( 23-C , 24-C ) :   1.3673 B( 23-C , 28-C ) :   0.9333 
B( 24-C , 25-C ) :   1.3725 B( 24-C , 77-H ) :   0.9370 B( 25-C , 26-C ) :   1.2956 
B( 25-C , 32-C ) :   0.9230 B( 26-C , 27-C ) :   1.4369 B( 26-C , 76-H ) :   0.9464 
B( 27-C , 36-C ) :   0.9366 B( 28-C , 29-C ) :   1.0904 B( 28-C , 30-C ) :   1.0330 
B( 28-C , 31-C ) :   1.0335 B( 29-C , 78-H ) :   0.9448 B( 29-C , 79-H ) :   0.9358 
B( 29-C , 80-H ) :   0.9376 B( 30-C , 81-H ) :   0.9561 B( 30-C , 82-H ) :   0.9435 
B( 30-C , 83-H ) :   0.9533 B( 31-C , 84-H ) :   0.9287 B( 31-C , 85-H ) :   0.9452 
B( 31-C , 86-H ) :   0.9474 B( 32-C , 33-C ) :   1.0503 B( 32-C , 34-C ) :   1.0958 
B( 32-C , 35-C ) :   1.0467 B( 33-C , 64-H ) :   0.9547 B( 33-C , 65-H ) :   0.9535 
B( 33-C , 66-H ) :   0.9590 B( 34-C , 61-H ) :   0.9411 B( 34-C , 62-H ) :   0.9449 
B( 34-C , 63-H ) :   0.9438 B( 35-C , 58-H ) :   0.9597 B( 35-C , 59-H ) :   0.9529 
B( 35-C , 60-H ) :   0.9534 B( 36-C , 37-C ) :   1.0385 B( 36-C , 38-C ) :   1.0962 
B( 36-C , 39-C ) :   1.0358 B( 37-C , 70-H ) :   0.9524 B( 37-C , 71-H ) :   0.9358 
B( 37-C , 72-H ) :   0.9545 B( 38-C , 67-H ) :   0.9363 B( 38-C , 68-H ) :   0.9459 
B( 38-C , 69-H ) :   0.9321 B( 39-C , 73-H ) :   0.9458 B( 39-C , 74-H ) :   0.9220 
B( 39-C , 75-H ) :   0.9421 B( 40-C , 41-C ) :   1.3829 B( 40-C , 45-C ) :   1.3553 
B( 41-C , 42-C ) :   1.3646 B( 41-C , 46-C ) :   0.9342 B( 42-C , 43-C ) :   1.3618 
B( 42-C ,116-H ) :   0.9444 B( 43-C , 44-C ) :   1.2973 B( 43-C , 50-C ) :   0.9275 
B( 44-C , 45-C ) :   1.4293 B( 44-C ,117-H ) :   0.9530 B( 45-C , 54-C ) :   0.9334 
B( 46-C , 47-C ) :   1.0882 B( 46-C , 48-C ) :   1.0278 B( 46-C , 49-C ) :   1.0286 
B( 47-C ,118-H ) :   0.9454 B( 47-C ,119-H ) :   0.9353 B( 47-C ,120-H ) :   0.9366 
B( 48-C ,124-H ) :   0.9516 B( 48-C ,125-H ) :   0.9568 B( 48-C ,126-H ) :   0.9417 
B( 49-C ,121-H ) :   0.9513 B( 49-C ,122-H ) :   0.9230 B( 49-C ,123-H ) :   0.9467 
B( 50-C , 51-C ) :   1.0430 B( 50-C , 52-C ) :   1.0865 B( 50-C , 53-C ) :   1.0458 
B( 51-C ,136-H ) :   0.9586 B( 51-C ,137-H ) :   0.9545 B( 51-C ,138-H ) :   0.9563 
B( 52-C ,142-H ) :   0.9430 B( 52-C ,143-H ) :   0.9495 B( 52-C ,144-H ) :   0.9443 
B( 53-C ,139-H ) :   0.9551 B( 53-C ,140-H ) :   0.9551 B( 53-C ,141-H ) :   0.9595 
B( 54-C , 55-C ) :   1.0282 B( 54-C , 56-C ) :   1.0357 B( 54-C , 57-C ) :   1.0869 
B( 55-C ,130-H ) :   0.9538 B( 55-C ,131-H ) :   0.9257 B( 55-C ,132-H ) :   0.9460 
B( 56-C ,133-H ) :   0.9518 B( 56-C ,134-H ) :   0.9537 B( 56-C ,135-H ) :   0.9356 
B( 57-C ,127-H ) :   0.9356 B( 57-C ,128-H ) :   0.9466 B( 57-C ,129-H ) :   0.9383 


-------
TIMINGS
-------

Total SCF time: 0 days 0 hours 12 min 52 sec 

Total time                  ....     772.371 sec
Sum of individual times     ....     757.786 sec  ( 98.1%)

Fock matrix formation       ....     639.263 sec  ( 82.8%)
  Split-RI-J                ....     494.622 sec  ( 77.4% of F)
  XC integration            ....     142.354 sec  ( 22.3% of F)
    Basis function eval.    ....      30.728 sec  ( 21.6% of XC)
    Density eval.           ....      52.503 sec  ( 36.9% of XC)
    XC-Functional eval.     ....       3.722 sec  (  2.6% of XC)
    XC-Potential eval.      ....      53.193 sec  ( 37.4% of XC)
Diagonalization             ....      28.951 sec  (  3.7%)
Density matrix formation    ....       5.938 sec  (  0.8%)
Population analysis         ....       1.215 sec  (  0.2%)
Initial guess               ....      20.235 sec  (  2.6%)
Orbital Transformation      ....       0.000 sec  (  0.0%)
Orbital Orthonormalization  ....       0.000 sec  (  0.0%)
DIIS solution               ....      10.210 sec  (  1.3%)
Grid generation             ....      51.973 sec  (  6.7%)

-------------------------   --------------------
FINAL SINGLE POINT ENERGY     -4566.819544188666
-------------------------   --------------------


                            ***************************************
                            *     ORCA property calculations      *
                            ***************************************

                                    ---------------------
                                    Active property flags
                                    ---------------------
   (+) Dipole Moment
   (+) Nuclear properties (Hyperfine,Quadrupole)


------------------------------------------------------------------------------
                       ORCA ELECTRIC PROPERTIES CALCULATION
------------------------------------------------------------------------------

Dipole Moment Calculation                       ... on
Quadrupole Moment Calculation                   ... off
Polarizability Calculation                      ... off
GBWName                                         ... moess.gbw
Electron density file                           ... moess.scfp.tmp
The origin for moment calculation is the CENTER OF MASS  = ( 0.052966,  0.042594  0.000879)

-------------
DIPOLE MOMENT
-------------
                                X             Y             Z
Electronic contribution:      3.04269       2.30220      -0.42810
Nuclear contribution   :     -3.19367      -2.39989       0.38896
                        -----------------------------------------
Total Dipole Moment    :     -0.15097      -0.09769      -0.03914
                        -----------------------------------------
Magnitude (a.u.)       :      0.18403
Magnitude (Debye)      :      0.46778



--------------------
Rotational spectrum 
--------------------
 
Rotational constants in cm-1:     0.001260     0.001114     0.000802 
Rotational constants in MHz :    37.771561    33.388306    24.036699 

 Dipole components along the rotational axes: 
x,y,z [a.u.] :     0.152466     0.017247     0.101613 
x,y,z [Debye]:     0.387537     0.043839     0.258279 

 
------------------------------------------------------------------------------
                                ORCA EPR/NMR CALCULATION
------------------------------------------------------------------------------

GBWName                      ... moess.gbw
Electron density file        ... moess.scfp.tmp
Spin density file            ... moess.scfr.tmp
Multiplicity                 ... 5
g-tensor                     ... 0
NMR chemical shifts          ... 0
Number of nuclei for epr/nmr ... 1
   Nucleus:   0Fe
       Hyperfine : Isotope=   57 I=   0.500 P=  17.280
       Quadrupole: Isotope=   57 I=   0.500 Q=   0.160
       Spin-Orbit: Zeff=  13.910
       Ncuelar Spin-Spin: Gn=   0.000
       rho(0)=Y f(grad)=Y a(iso)=N a(dip)=N a(orb)=N sigma(nmr)=N spin-spin(nmr)=all-N,DSO-N,PSO-N,FC-N,SD-N

-----------------------------------------
ELECTRIC AND MAGNETIC HYPERFINE STRUCTURE
-----------------------------------------

 -----------------------------------------------------------
 Nucleus   0Fe: A:ISTP=   57 I=  0.5 P= 17.2798 MHz/au**3
                Q:ISTP=   57 I=  0.5 Q=  0.1600 barn     
 -----------------------------------------------------------
 Raw EFG matrix (all values in a.u.**-3):
             0.3628      -0.0669       0.0892
            -0.0669      -0.7757       0.1195
             0.0892       0.1195       0.4128

 V(El)      -0.0317       0.2161      -0.1845
 V(Nuc)      0.3411       0.2669      -0.6080
         ----------   ----------   ----------
 V(Tot)      0.3095       0.4830      -0.7925 
 Orientation: 
  X       0.8130339    0.5785308   -0.0654059
  Y      -0.1129803    0.0465681   -0.9925053
  Z      -0.5711491    0.8143301    0.1032241

Note: Tensor is right-handed

Moessbauer quadrupole splitting parameter (proper coordinate system)
 e**2qQ  =  -29.793 MHz =   -2.568 mm/s
 eta     =  0.219
 Delta-EQ=(1/2{e**2qQ}*sqrt(1+1/3*eta**2) =  -15.015 MHz =   -1.294 mm/s
 RHO(0)=  11190.773245597 a.u.**-3


------------------------------------------------------------------------------- 

Timings for individual modules:

Sum of individual times         ...      777.095 sec (=  12.952 min)
GTO integral calculation        ...        3.040 sec (=   0.051 min)   0.4 %
SCF iterations                  ...      772.413 sec (=  12.874 min)  99.4 %
EPR/NMR calculation             ...        1.642 sec (=   0.027 min)   0.2 %
                             ****ORCA TERMINATED NORMALLY****
TOTAL RUN TIME: 0 days 0 hours 12 minutes 57 seconds 902 msec
