
                                 *****************
                                 * O   R   C   A *
                                 *****************

           --- An Ab Initio, DFT and Semiempirical electronic structure package ---

                  #######################################################
                  #                        -***-                        #
                  #          Department of theory and spectroscopy      #
                  #               Directorship: Frank Neese             #
                  #        Max Planck Institute fuer Kohlenforschung    #
                  #                Kaiser Wilhelm Platz 1               #
                  #                 D-45470 Muelheim/Ruhr               #
                  #                      Germany                        #
                  #                                                     #
                  #                  All rights reserved                #
                  #                        -***-                        #
                  #######################################################


                         Program Version 4.1.2  - RELEASE  -


 With contributions from (in alphabetic order):
   Daniel Aravena         : Magnetic Properties
   Michael Atanasov       : Ab Initio Ligand Field Theory
   Alexander A. Auer      : GIAO ZORA
   Ute Becker             : Parallelization
   Giovanni Bistoni       : ED, Open-shell LED
   Martin Brehm           : Molecular dynamics
   Dmytro Bykov           : SCF Hessian
   Vijay G. Chilkuri      : MRCI spin determinant printing
   Dipayan Datta          : RHF DLPNO-CCSD density
   Achintya Kumar Dutta   : EOM-CC, STEOM-CC
   Dmitry Ganyushin       : Spin-Orbit,Spin-Spin,Magnetic field MRCI
   Miquel Garcia          : C-PCM Hessian
   Yang Guo               : DLPNO-NEVPT2, CIM, IAO-localization
   Andreas Hansen         : Spin unrestricted coupled pair/coupled cluster methods
   Benjamin Helmich-Paris : CASSCF linear response (MC-RPA)
   Lee Huntington         : MR-EOM, pCC
   Robert Izsak           : Overlap fitted RIJCOSX, COSX-SCS-MP3, EOM
   Christian Kollmar      : KDIIS, OOCD, Brueckner-CCSD(T), CCSD density
   Simone Kossmann        : Meta GGA functionals, TD-DFT gradient, OOMP2, MP2 Hessian
   Martin Krupicka        : AUTO-CI
   Lucas Lang             : DCDCAS
   Dagmar Lenk            : GEPOL surface, SMD
   Dimitrios Liakos       : Extrapolation schemes; parallel MDCI
   Dimitrios Manganas     : ROCIS; embedding schemes
   Dimitrios Pantazis     : SARC Basis sets
   Taras Petrenko         : DFT Hessian,TD-DFT gradient, ASA, ECA, R-Raman, ABS, FL, XAS/XES, NRVS
   Peter Pinski           : DLPNO-MP2, DLPNO-MP2 Gradient
   Christoph Reimann      : Effective Core Potentials
   Marius Retegan         : Local ZFS, SOC
   Christoph Riplinger    : Optimizer, TS searches, QM/MM, DLPNO-CCSD(T), (RO)-DLPNO pert. Triples
   Tobias Risthaus        : Range-separated hybrids, TD-DFT gradient, RPA, STAB
   Michael Roemelt        : Restricted open shell CIS
   Masaaki Saitow         : Open-shell DLPNO
   Barbara Sandhoefer     : DKH picture change effects
   Avijit Sen             : IP-ROCIS
   Kantharuban Sivalingam : CASSCF convergence, NEVPT2, FIC-MRCI
   Bernardo de Souza      : ESD, SOC TD-DFT
   Georgi Stoychev        : AutoAux, RI-MP2 NMR
   Willem Van den Heuvel  : Paramagnetic NMR
   Boris Wezisla          : Elementary symmetry handling
   Frank Wennmohs         : Technical directorship


 We gratefully acknowledge several colleagues who have allowed us to
 interface, adapt or use parts of their codes:
   Stefan Grimme, W. Hujo, H. Kruse,             : VdW corrections, initial TS optimization,
                  C. Bannwarth                     DFT functionals, gCP, sTDA/sTD-DF
   Ed Valeev                                     : LibInt (2-el integral package), F12 methods
   Garnet Chan, S. Sharma, J. Yang, R. Olivares  : DMRG
   Ulf Ekstrom                                   : XCFun DFT Library
   Mihaly Kallay                                 : mrcc  (arbitrary order and MRCC methods)
   Andreas Klamt, Michael Diedenhofen            : otool_cosmo (COSMO solvation model)
   Jiri Pittner, Ondrej Demel                    : Mk-CCSD
   Frank Weinhold                                : gennbo (NPA and NBO analysis)
   Christopher J. Cramer and Donald G. Truhlar   : smd solvation model
   Lars Goerigk                                  : TD-DFT with DH, B97 family of functionals
   V. Asgeirsson, H. Jonsson                     : NEB implementation
   FAccTs GmbH                                   : IRC, NEB, NEB-TS, Multilevel


 Your calculation uses the libint2 library for the computation of 2-el integrals
 For citations please refer to: http://libint.valeyev.net

 This ORCA versions uses:
   CBLAS   interface :  Fast vector & matrix operations
   LAPACKE interface :  Fast linear algebra routines
   SCALAPACK package :  Parallel linear algebra routines




***************************************
The coordinates will be read from file: geom.xyz
***************************************


----- Orbital basis set information -----
Your calculation utilizes the basis: def2-SVP
   F. Weigend and R. Ahlrichs, Phys. Chem. Chem. Phys. 7, 3297 (2005).

----- AuxJ basis set information -----
Your calculation utilizes the auxiliary basis: def2/J
   F. Weigend, Phys. Chem. Chem. Phys. 8, 1057 (2006).

================================================================================
                                        WARNINGS
                       Please study these warnings very carefully!
================================================================================


WARNING: your system is open-shell and RHF/RKS was chosen
  ===> : WILL SWITCH to UHF/UKS


INFO   : the flag for use of LIBINT has been found!

================================================================================
                                       INPUT FILE
================================================================================
NAME = moess.inp
|  1> ! bp86 def2-svp
|  2> 
|  3> * xyzfile  1 2 geom.xyz
|  4> 
|  5> %eprnmr
|  6> nuclei = all Fe {fgrad, rho}
|  7> end
|  8> 
|  9> 
| 10>                          ****END OF INPUT****
================================================================================

                       ****************************
                       * Single Point Calculation *
                       ****************************

---------------------------------
CARTESIAN COORDINATES (ANGSTROEM)
---------------------------------
  Fe    -0.062188    0.007525    0.020326
  N      1.338624    1.439807    0.149970
  N     -1.456699    1.443319   -0.117288
  N      0.086882    0.006752   -1.958463
  N     -0.047510   -0.007591   -6.145532
  C      2.698154    1.237640    0.269546
  C      1.170907    2.811778    0.089393
  C     -1.277660    2.815494   -0.141492
  C     -2.818108    1.242948   -0.211030
  C      3.392676    2.501052    0.290598
  C      2.445812    3.477299    0.176816
  C     -2.548453    3.482339   -0.271085
  C     -3.503345    2.509021   -0.302253
  C      3.332010    0.002285    0.316200
  C     -0.050133    3.462520   -0.052187
  C      0.139998    1.158204   -2.675390
  C      0.120842    1.200991   -4.050030
  C      0.014807   -0.003632   -4.796396
  C     -0.010427   -1.205062   -4.037609
  C      0.030652   -1.150563   -2.664926
  C     -0.093335   -1.276654   -6.881245
  C     -0.054674    1.255983   -6.890426
  H      0.193981    2.074550   -2.104970
  H      0.180483    2.167782   -4.534933
  H     -0.085997   -2.176230   -4.511623
  H      0.013608   -2.062201   -2.086348
  H     -0.103347   -1.051676   -7.946291
  H     -0.992075   -1.849297   -6.627158
  H      0.787212   -1.885044   -6.649206
  H     -0.066560    1.023218   -7.953773
  H      0.838355    1.847131   -6.662226
  H     -0.941654    1.848868   -6.641277
  H      4.414990    0.001491    0.399155
  H     -0.044234    4.547403   -0.092096
  N     -1.460362   -1.429908   -0.102012
  N      1.338859   -1.429942    0.123075
  N     -0.211744    0.003923    2.009490
  C     -3.454937    0.008380   -0.229582
  C      2.699261   -1.232057    0.235751
  C     -2.821984   -1.227767   -0.186184
  C     -1.285419   -2.802896   -0.107495
  C      1.169803   -2.801231    0.039670
  C     -0.085857   -1.153632    2.706238
  C     -0.281649    1.149109    2.734657
  H     -4.538790    0.009321   -0.298953
  C      3.393078   -2.496055    0.226255
  C     -3.512032   -2.492952   -0.244444
  C     -2.559511   -3.468685   -0.206218
  C     -0.056130   -3.450778   -0.060060
  C      2.444479   -3.469274    0.098232
  C      0.032474   -1.212088    4.075294
  H     -0.070228   -2.061378    2.119673
  C     -0.200783    1.186225    4.108327
  H     -0.400895    2.067092    2.173737
  H     -0.052531   -4.535756   -0.099749
  C      0.008621   -0.014206    4.841336
  H      0.154994   -2.182104    4.541573
  H     -0.269692    2.149772    4.597677
  N      0.172466   -0.016473    6.184539
  C      0.208122    1.249313    6.925875
  C      0.507126   -1.258159    6.896289
  H      0.219656    1.018560    7.990075
  H      1.100610    1.834123    6.671852
  H     -0.679343    1.846856    6.701019
  H      0.586206   -1.032665    7.958710
  H     -0.272521   -2.012401    6.752855
  H      1.462641   -1.662218    6.541456
  H      4.467255    2.608315    0.374355
  H      2.578722    4.551390    0.139184
  H     -2.672158    4.556585   -0.328213
  H     -4.577164    2.619867   -0.389870
  H      4.467710   -2.605433    0.304885
  H     -4.586882   -2.601304   -0.321083
  H     -2.686659   -4.543460   -0.244744
  H      2.574781   -4.542799    0.040650

----------------------------
CARTESIAN COORDINATES (A.U.)
----------------------------
  NO LB      ZA    FRAG     MASS         X           Y           Z
   0 Fe   26.0000    0    55.850   -0.117518    0.014220    0.038411
   1 N     7.0000    0    14.007    2.529633    2.720841    0.283402
   2 N     7.0000    0    14.007   -2.752762    2.727478   -0.221642
   3 N     7.0000    0    14.007    0.164183    0.012759   -3.700959
   4 N     7.0000    0    14.007   -0.089781   -0.014345  -11.613372
   5 C     6.0000    0    12.011    5.098772    2.338801    0.509368
   6 C     6.0000    0    12.011    2.212694    5.313490    0.168928
   7 C     6.0000    0    12.011   -2.414427    5.320513   -0.267381
   8 C     6.0000    0    12.011   -5.325452    2.348831   -0.398789
   9 C     6.0000    0    12.011    6.411229    4.726303    0.549151
  10 C     6.0000    0    12.011    4.621915    6.571143    0.334134
  11 C     6.0000    0    12.011   -4.815878    6.580667   -0.512276
  12 C     6.0000    0    12.011   -6.620363    4.741363   -0.571175
  13 C     6.0000    0    12.011    6.296586    0.004318    0.597531
  14 C     6.0000    0    12.011   -0.094738    6.543215   -0.098619
  15 C     6.0000    0    12.011    0.264558    2.188688   -5.055754
  16 C     6.0000    0    12.011    0.228358    2.269544   -7.653448
  17 C     6.0000    0    12.011    0.027981   -0.006863   -9.063875
  18 C     6.0000    0    12.011   -0.019704   -2.277237   -7.629975
  19 C     6.0000    0    12.011    0.057924   -2.174249   -5.035980
  20 C     6.0000    0    12.011   -0.176378   -2.412526  -13.003669
  21 C     6.0000    0    12.011   -0.103319    2.373464  -13.021018
  22 H     1.0000    0     1.008    0.366571    3.920331   -3.977817
  23 H     1.0000    0     1.008    0.341063    4.096514   -8.569781
  24 H     1.0000    0     1.008   -0.162511   -4.112479   -8.525732
  25 H     1.0000    0     1.008    0.025715   -3.896995   -3.942626
  26 H     1.0000    0     1.008   -0.195298   -1.987380  -15.016314
  27 H     1.0000    0     1.008   -1.874750   -3.494665  -12.523514
  28 H     1.0000    0     1.008    1.487615   -3.562217  -12.565178
  29 H     1.0000    0     1.008   -0.125780    1.933602  -15.030453
  30 H     1.0000    0     1.008    1.584261    3.490572  -12.589783
  31 H     1.0000    0     1.008   -1.779468    3.493854  -12.550195
  32 H     1.0000    0     1.008    8.343122    0.002818    0.754294
  33 H     1.0000    0     1.008   -0.083590    8.593346   -0.174036
  34 N     7.0000    0    14.007   -2.759684   -2.702135   -0.192775
  35 N     7.0000    0    14.007    2.530077   -2.702199    0.232578
  36 N     7.0000    0    14.007   -0.400138    0.007413    3.797386
  37 C     6.0000    0    12.011   -6.528885    0.015836   -0.433847
  38 C     6.0000    0    12.011    5.100864   -2.328250    0.445505
  39 C     6.0000    0    12.011   -5.332777   -2.320143   -0.351837
  40 C     6.0000    0    12.011   -2.429090   -5.296706   -0.203136
  41 C     6.0000    0    12.011    2.210607   -5.293559    0.074965
  42 C     6.0000    0    12.011   -0.162246   -2.180049    5.114049
  43 C     6.0000    0    12.011   -0.532239    2.171501    5.167753
  44 H     1.0000    0     1.008   -8.577070    0.017614   -0.564939
  45 C     6.0000    0    12.011    6.411988   -4.716860    0.427560
  46 C     6.0000    0    12.011   -6.636779   -4.710997   -0.461932
  47 C     6.0000    0    12.011   -4.836775   -6.554865   -0.389696
  48 C     6.0000    0    12.011   -0.106070   -6.521025   -0.113497
  49 C     6.0000    0    12.011    4.619396   -6.555978    0.185632
  50 C     6.0000    0    12.011    0.061367   -2.290514    7.701190
  51 H     1.0000    0     1.008   -0.132712   -3.895440    4.005601
  52 C     6.0000    0    12.011   -0.379425    2.241640    7.763613
  53 H     1.0000    0     1.008   -0.757582    3.906238    4.107768
  54 H     1.0000    0     1.008   -0.099269   -8.571337   -0.188498
  55 C     6.0000    0    12.011    0.016291   -0.026845    9.148799
  56 H     1.0000    0     1.008    0.292896   -4.123579    8.582329
  57 H     1.0000    0     1.008   -0.509644    4.062480    8.688350
  58 N     7.0000    0    14.007    0.325914   -0.031129   11.687085
  59 C     6.0000    0    12.011    0.393294    2.360859   13.088007
  60 C     6.0000    0    12.011    0.958329   -2.377576   13.032098
  61 H     1.0000    0     1.008    0.415090    1.924799   15.099054
  62 H     1.0000    0     1.008    2.079851    3.465990   12.607973
  63 H     1.0000    0     1.008   -1.283772    3.490052   12.663091
  64 H     1.0000    0     1.008    1.107769   -1.951454   15.039782
  65 H     1.0000    0     1.008   -0.514990   -3.802887   12.761047
  66 H     1.0000    0     1.008    2.763991   -3.141137   12.361560
  67 H     1.0000    0     1.008    8.441889    4.929001    0.707428
  68 H     1.0000    0     1.008    4.873078    8.600881    0.263020
  69 H     1.0000    0     1.008   -5.049647    8.610698   -0.620233
  70 H     1.0000    0     1.008   -8.649586    4.950831   -0.736748
  71 H     1.0000    0     1.008    8.442748   -4.923555    0.576149
  72 H     1.0000    0     1.008   -8.667951   -4.915752   -0.606759
  73 H     1.0000    0     1.008   -5.077050   -8.585895   -0.462499
  74 H     1.0000    0     1.008    4.865631   -8.584646    0.076817

--------------------------------
INTERNAL COORDINATES (ANGSTROEM)
--------------------------------
 Fe     0   0   0     0.000000000000     0.00000000     0.00000000
 N      1   0   0     2.007613895550     0.00000000     0.00000000
 N      1   2   0     2.006265922691    88.78831442     0.00000000
 N      1   2   3     1.984396222772    90.70222796    89.07357261
 N      4   1   2     4.189249782726   173.85098882   223.89384024
 C      2   1   3     1.379670879799   126.05916811   180.56284885
 C      2   1   3     1.383511109409   128.32063403   357.87446243
 C      3   1   2     1.384017712228   128.37561861     1.95690025
 C      3   1   2     1.379264501641   125.92852521   181.82940054
 C      6   2   1     1.441878592993   110.33548200   178.08333983
 C     10   6   2     1.364754916836   106.94084279   359.73642744
 C      8   3   1     1.440968926980   110.26141553   179.09355712
 C     12   8   3     1.363868800513   106.81294144     1.02744980
 C      6   2   1     1.389263114200   125.64791029     0.23350213
 C      8   3   1     1.390482133445   125.05913035   359.01740549
 C      4   1   2     1.357441468753   121.95563552   315.47397219
 C     16   4   1     1.375439133261   123.61993317   186.13126174
 C      5   4  16     1.350580256285     0.80673244    88.23029919
 C     18   5  17     1.421206709464   122.00782797   180.53811193
 C      4   1   2     1.357066613138   121.08636273   140.90691619
 C      5   4  20     1.467615224425   120.33132392   359.34078017
 C      5   4  20     1.466812069629   120.31640913   179.09393904
 H     16   4   1     1.080732683139   116.25848825     5.76700041
 H     17  16   4     1.083223340762   118.31934839   180.79232968
 H     19  18   5     1.083313150165   121.69996616   359.68332888
 H     20   4   1     1.079873531051   116.21121920   353.36250305
 H     21   5   4     1.088594654931   108.18178852   181.11635189
 H     21   5   4     1.095542695023   111.18230440    61.32518424
 H     21   5   4     1.095145428165   110.42955148   300.61691707
 H     22   5   4     1.088589759565   108.17459273   178.60058457
 H     22   5   4     1.095003193030   110.80827277    58.99884853
 H     22   5   4     1.095591788864   110.77148360   298.26218369
 H     14   6   2     1.086152771419   117.26685808   179.19758123
 H     15   8   3     1.085632833960   117.86821214   179.47568079
 N      1   2   3     2.008997448980   179.73704080   229.45477321
 N      1   2   3     2.009925727309    91.17767358   178.99250081
 N      1   2   3     1.994781539527    89.38158063   268.97939594
 C      9   3   1     1.389263653368   125.62403644   359.81701689
 C     36   1   2     1.379328806270   126.09114329   359.89557217
 C     35   1   4     1.379115796570   125.87169314   268.69356526
 C     35   1   4     1.384099405636   128.46450712    89.38477951
 C     36   1   2     1.384185625804   128.33842565   182.97368955
 C     37   1   2     1.356922580805   120.43864531   233.22079030
 C     37   1   2     1.357278476036   122.35160724    45.24719224
 H     38   9   3     1.086071151781   117.22848125   179.47833016
 C     39  36   1     1.441930354597   110.38156725   182.36257189
 C     40  35   1     1.442308411585   110.25852412   180.60196424
 C     47  40  35     1.364115966407   106.99196708   359.51184560
 C     41  35   1     1.390378585375   125.01913549   358.26704004
 C     46  39  36     1.365058670274   106.93084087     0.37051028
 C     43  37   1     1.375403090237   123.73449603   169.44266430
 H     43  37   1     1.080881846171   116.04774617   350.14799935
 C     44  37   1     1.376548646548   123.56530202   189.23816161
 H     44  37   1     1.082378696762   116.38379097     8.82044299
 H     49  41  35     1.085709643508   117.86208511   181.75841982
 C     53  44  37     1.422036151108   120.01825155     2.04272575
 H     51  43  37     1.083216643381   118.44153998   181.60995039
 H     53  44  37     1.082882585505   118.11248951   180.15812118
 N     56  53  44     1.353160974357   122.06733909   176.06760577
 C     59  56  53     1.467332482101   120.19908244   356.78479893
 C     59  56  53     1.469819546984   120.64145244   185.54563564
 H     60  59  56     1.088991101968   108.13106834   172.94468351
 H     60  59  56     1.096843311860   111.26644215   292.99974851
 H     60  59  56     1.093257510292   110.35636092    53.82001939
 H     61  59  56     1.088962612617   108.30304392   180.27545670
 H     61  59  56     1.094213759523   110.89181451   299.59608972
 H     61  59  56     1.096439258963   110.67286474    60.61095798
 H     10   6   2     1.083162320919   124.45516703   180.18746209
 H     11  10   6     1.082937076568   128.84613296   181.04309329
 H     12   8   3     1.082853177455   124.37382552   180.97555207
 H     13  12   8     1.083074706180   128.53284446   179.89475704
 H     46  39  36     1.083042085613   124.43611888   180.16978982
 H     47  40  35     1.083012564435   124.43327665   180.45689771
 H     48  47  40     1.082955293262   128.82202239   180.99967625
 H     50  46  39     1.082935927723   128.91209187   179.17740096

---------------------------
INTERNAL COORDINATES (A.U.)
---------------------------
 Fe     0   0   0     0.000000000000     0.00000000     0.00000000
 N      1   0   0     3.793840445244     0.00000000     0.00000000
 N      1   2   0     3.791293145706    88.78831442     0.00000000
 N      1   2   3     3.749965402226    90.70222796    89.07357261
 N      4   1   2     7.916534795942   173.85098882   223.89384024
 C      2   1   3     2.607200117766   126.05916811   180.56284885
 C      2   1   3     2.614457100021   128.32063403   357.87446243
 C      3   1   2     2.615414440608   128.37561861     1.95690025
 C      3   1   2     2.606432174340   125.92852521   181.82940054
 C      6   2   1     2.724755659121   110.33548200   178.08333983
 C     10   6   2     2.579013032743   106.94084279   359.73642744
 C      8   3   1     2.723036639483   110.26141553   179.09355712
 C     12   8   3     2.577338515569   106.81294144     1.02744980
 C      6   2   1     2.625326813797   125.64791029     0.23350213
 C      8   3   1     2.627630426322   125.05913035   359.01740549
 C      4   1   2     2.565192618770   121.95563552   315.47397219
 C     16   4   1     2.599203275741   123.61993317   186.13126174
 C      5   4  16     2.552226806259     0.80673244    88.23029919
 C     18   5  17     2.685691460578   122.00782797   180.53811193
 C      4   1   2     2.564484244319   121.08636273   140.90691619
 C      5   4  20     2.773390844136   120.33132392   359.34078017
 C      5   4  20     2.771873101528   120.31640913   179.09393904
 H     16   4   1     2.042288795111   116.25848825     5.76700041
 H     17  16   4     2.046995455911   118.31934839   180.79232968
 H     19  18   5     2.047165171087   121.69996616   359.68332888
 H     20   4   1     2.040665232956   116.21121920   353.36250305
 H     21   5   4     2.057145768670   108.18178852   181.11635189
 H     21   5   4     2.070275661611   111.18230440    61.32518424
 H     21   5   4     2.069524936047   110.42955148   300.61691707
 H     22   5   4     2.057136517769   108.17459273   178.60058457
 H     22   5   4     2.069256150595   110.80827277    58.99884853
 H     22   5   4     2.070368435526   110.77148360   298.26218369
 H     14   6   2     2.052531277581   117.26685808   179.19758123
 H     15   8   3     2.051548738176   117.86821214   179.47568079
 N      1   2   3     3.796454982319   179.73704080   229.45477321
 N      1   2   3     3.798209174137    91.17767358   178.99250081
 N      1   2   3     3.769590806707    89.38158063   268.97939594
 C      9   3   1     2.625327832676   125.62403644   359.81701689
 C     36   1   2     2.606553692478   126.09114329   359.89557217
 C     35   1   4     2.606151162482   125.87169314   268.69356526
 C     35   1   4     2.615568818775   128.46450712    89.38477951
 C     36   1   2     2.615731751280   128.33842565   182.97368955
 C     37   1   2     2.564212062655   120.43864531   233.22079030
 C     37   1   2     2.564884607174   122.35160724    45.24719224
 H     38   9   3     2.052377038819   117.22848125   179.47833016
 C     39  36   1     2.724853474377   110.38156725   182.36257189
 C     40  35   1     2.725567898547   110.25852412   180.60196424
 C     47  40  35     2.577805591418   106.99196708   359.51184560
 C     41  35   1     2.627434748828   125.01913549   358.26704004
 C     46  39  36     2.579587043553   106.93084087     0.37051028
 C     43  37   1     2.599135164297   123.73449603   169.44266430
 H     43  37   1     2.042570672390   116.04774617   350.14799935
 C     44  37   1     2.601299951995   123.56530202   189.23816161
 H     44  37   1     2.045399310071   116.38379097     8.82044299
 H     49  41  35     2.051693887187   117.86208511   181.75841982
 C     53  44  37     2.687258878130   120.01825155     2.04272575
 H     51  43  37     2.046982799695   118.44153998   181.60995039
 H     53  44  37     2.046351521797   118.11248951   180.15812118
 N     56  53  44     2.557103656645   122.06733909   176.06760577
 C     59  56  53     2.772856538577   120.19908244   356.78479893
 C     59  56  53     2.777556410084   120.64145244   185.54563564
 H     60  59  56     2.057894944996   108.13106834   172.94468351
 H     60  59  56     2.072733471239   111.26644215   292.99974851
 H     60  59  56     2.065957288305   110.35636092    53.82001939
 H     61  59  56     2.057841107925   108.30304392   180.27545670
 H     61  59  56     2.067764337466   110.89181451   299.59608972
 H     61  59  56     2.071969921919   110.67286474    60.61095798
 H     10   6   2     2.046880145120   124.45516703   180.18746209
 H     11  10   6     2.046454494982   128.84613296   181.04309329
 H     12   8   3     2.046295948637   124.37382552   180.97555207
 H     13  12   8     2.046714577257   128.53284446   179.89475704
 H     46  39  36     2.046652933319   124.43611888   180.16978982
 H     47  40  35     2.046597146379   124.43327665   180.45689771
 H     48  47  40     2.046488919546   128.82202239   180.99967625
 H     50  46  39     2.046452323980   128.91209187   179.17740096

---------------------
BASIS SET INFORMATION
---------------------
There are 4 groups of distinct atoms

 Group   1 Type Fe  : 14s9p5d1f contracted to 5s3p2d1f pattern {63311/531/41/1}
 Group   2 Type N   : 7s4p1d contracted to 3s2p1d pattern {511/31/1}
 Group   3 Type C   : 7s4p1d contracted to 3s2p1d pattern {511/31/1}
 Group   4 Type H   : 4s1p contracted to 2s1p pattern {31/1}

Atom   0Fe   basis set group =>   1
Atom   1N    basis set group =>   2
Atom   2N    basis set group =>   2
Atom   3N    basis set group =>   2
Atom   4N    basis set group =>   2
Atom   5C    basis set group =>   3
Atom   6C    basis set group =>   3
Atom   7C    basis set group =>   3
Atom   8C    basis set group =>   3
Atom   9C    basis set group =>   3
Atom  10C    basis set group =>   3
Atom  11C    basis set group =>   3
Atom  12C    basis set group =>   3
Atom  13C    basis set group =>   3
Atom  14C    basis set group =>   3
Atom  15C    basis set group =>   3
Atom  16C    basis set group =>   3
Atom  17C    basis set group =>   3
Atom  18C    basis set group =>   3
Atom  19C    basis set group =>   3
Atom  20C    basis set group =>   3
Atom  21C    basis set group =>   3
Atom  22H    basis set group =>   4
Atom  23H    basis set group =>   4
Atom  24H    basis set group =>   4
Atom  25H    basis set group =>   4
Atom  26H    basis set group =>   4
Atom  27H    basis set group =>   4
Atom  28H    basis set group =>   4
Atom  29H    basis set group =>   4
Atom  30H    basis set group =>   4
Atom  31H    basis set group =>   4
Atom  32H    basis set group =>   4
Atom  33H    basis set group =>   4
Atom  34N    basis set group =>   2
Atom  35N    basis set group =>   2
Atom  36N    basis set group =>   2
Atom  37C    basis set group =>   3
Atom  38C    basis set group =>   3
Atom  39C    basis set group =>   3
Atom  40C    basis set group =>   3
Atom  41C    basis set group =>   3
Atom  42C    basis set group =>   3
Atom  43C    basis set group =>   3
Atom  44H    basis set group =>   4
Atom  45C    basis set group =>   3
Atom  46C    basis set group =>   3
Atom  47C    basis set group =>   3
Atom  48C    basis set group =>   3
Atom  49C    basis set group =>   3
Atom  50C    basis set group =>   3
Atom  51H    basis set group =>   4
Atom  52C    basis set group =>   3
Atom  53H    basis set group =>   4
Atom  54H    basis set group =>   4
Atom  55C    basis set group =>   3
Atom  56H    basis set group =>   4
Atom  57H    basis set group =>   4
Atom  58N    basis set group =>   2
Atom  59C    basis set group =>   3
Atom  60C    basis set group =>   3
Atom  61H    basis set group =>   4
Atom  62H    basis set group =>   4
Atom  63H    basis set group =>   4
Atom  64H    basis set group =>   4
Atom  65H    basis set group =>   4
Atom  66H    basis set group =>   4
Atom  67H    basis set group =>   4
Atom  68H    basis set group =>   4
Atom  69H    basis set group =>   4
Atom  70H    basis set group =>   4
Atom  71H    basis set group =>   4
Atom  72H    basis set group =>   4
Atom  73H    basis set group =>   4
Atom  74H    basis set group =>   4
-------------------------------
AUXILIARY BASIS SET INFORMATION
-------------------------------
There are 4 groups of distinct atoms

 Group   1 Type Fe  : 19s5p5d3f3g contracted to 8s5p5d2f3g pattern {121111111/11111/11111/21/111}
 Group   2 Type N   : 12s5p4d2f1g contracted to 6s4p3d1f1g pattern {711111/2111/211/2/1}
 Group   3 Type C   : 12s5p4d2f1g contracted to 6s4p3d1f1g pattern {711111/2111/211/2/1}
 Group   4 Type H   : 5s2p1d contracted to 3s1p1d pattern {311/2/1}

Atom   0Fe   basis set group =>   1
Atom   1N    basis set group =>   2
Atom   2N    basis set group =>   2
Atom   3N    basis set group =>   2
Atom   4N    basis set group =>   2
Atom   5C    basis set group =>   3
Atom   6C    basis set group =>   3
Atom   7C    basis set group =>   3
Atom   8C    basis set group =>   3
Atom   9C    basis set group =>   3
Atom  10C    basis set group =>   3
Atom  11C    basis set group =>   3
Atom  12C    basis set group =>   3
Atom  13C    basis set group =>   3
Atom  14C    basis set group =>   3
Atom  15C    basis set group =>   3
Atom  16C    basis set group =>   3
Atom  17C    basis set group =>   3
Atom  18C    basis set group =>   3
Atom  19C    basis set group =>   3
Atom  20C    basis set group =>   3
Atom  21C    basis set group =>   3
Atom  22H    basis set group =>   4
Atom  23H    basis set group =>   4
Atom  24H    basis set group =>   4
Atom  25H    basis set group =>   4
Atom  26H    basis set group =>   4
Atom  27H    basis set group =>   4
Atom  28H    basis set group =>   4
Atom  29H    basis set group =>   4
Atom  30H    basis set group =>   4
Atom  31H    basis set group =>   4
Atom  32H    basis set group =>   4
Atom  33H    basis set group =>   4
Atom  34N    basis set group =>   2
Atom  35N    basis set group =>   2
Atom  36N    basis set group =>   2
Atom  37C    basis set group =>   3
Atom  38C    basis set group =>   3
Atom  39C    basis set group =>   3
Atom  40C    basis set group =>   3
Atom  41C    basis set group =>   3
Atom  42C    basis set group =>   3
Atom  43C    basis set group =>   3
Atom  44H    basis set group =>   4
Atom  45C    basis set group =>   3
Atom  46C    basis set group =>   3
Atom  47C    basis set group =>   3
Atom  48C    basis set group =>   3
Atom  49C    basis set group =>   3
Atom  50C    basis set group =>   3
Atom  51H    basis set group =>   4
Atom  52C    basis set group =>   3
Atom  53H    basis set group =>   4
Atom  54H    basis set group =>   4
Atom  55C    basis set group =>   3
Atom  56H    basis set group =>   4
Atom  57H    basis set group =>   4
Atom  58N    basis set group =>   2
Atom  59C    basis set group =>   3
Atom  60C    basis set group =>   3
Atom  61H    basis set group =>   4
Atom  62H    basis set group =>   4
Atom  63H    basis set group =>   4
Atom  64H    basis set group =>   4
Atom  65H    basis set group =>   4
Atom  66H    basis set group =>   4
Atom  67H    basis set group =>   4
Atom  68H    basis set group =>   4
Atom  69H    basis set group =>   4
Atom  70H    basis set group =>   4
Atom  71H    basis set group =>   4
Atom  72H    basis set group =>   4
Atom  73H    basis set group =>   4
Atom  74H    basis set group =>   4
------------------------------------------------------------------------------
                           ORCA GTO INTEGRAL CALCULATION
                           -- RI-GTO INTEGRALS CHOSEN --
------------------------------------------------------------------------------

                         BASIS SET STATISTICS AND STARTUP INFO

Gaussian basis set:
 # of primitive gaussian shells          ...  693
 # of primitive gaussian functions       ... 1305
 # of contracted shells                  ...  359
 # of contracted basis functions         ...  779
 Highest angular momentum                ...    3
 Maximum contraction depth               ...    6
Auxiliary gaussian basis set:
 # of primitive gaussian shells          ... 1299
 # of primitive gaussian functions       ... 3559
 # of contracted shells                  ...  813
 # of contracted aux-basis functions     ... 2499
 Highest angular momentum                ...    4
 Maximum contraction depth               ...   12
Ratio of auxiliary to basis functions    ...  3.21
Integral package used                  ... LIBINT
 One Electron integrals                  ... done
 Ordering auxiliary basis shells         ... done
 Integral threshhold             Thresh  ...  1.000e-10
 Primitive cut-off               TCut    ...  1.000e-11
 Pre-screening matrix                    ... done
 Shell pair data                         ... 
 Ordering of the shell pairs             ... done (   0.008 sec) 40906 of 64620 pairs
 Determination of significant pairs      ... done (   0.000 sec)
 Creation of shell pair data             ... done (   0.005 sec)
 Storage of shell pair data              ... done (   0.006 sec)
 Shell pair data done in (   0.020 sec)
 Computing two index integrals           ... done
 Cholesky decomposition of the V-matrix  ... done


Timings:
 Total evaluation time                   ...   1.038 sec (  0.017 min)
 One electron matrix time                ...   0.372 sec (  0.006 min) = 35.8%
 Schwartz matrix evaluation time         ...   0.354 sec (  0.006 min) = 34.1%
 Two index repulsion integral time       ...   0.108 sec (  0.002 min) = 10.4%
 Cholesky decomposition of V             ...   0.165 sec (  0.003 min) = 15.9%
 Three index repulsion integral time     ...   0.000 sec (  0.000 min) =  0.0%

-------------------------------------------------------------------------------
                                 ORCA SCF
-------------------------------------------------------------------------------

------------
SCF SETTINGS
------------
Hamiltonian:
 Density Functional     Method          .... DFT(GTOs)
 Exchange Functional    Exchange        .... B88
   X-Alpha parameter    XAlpha          ....  0.666667
   Becke's b parameter  XBeta           ....  0.004200
 Correlation Functional Correlation     .... P86
 LDA part of GGA corr.  LDAOpt          .... PW91-LDA
 Gradients option       PostSCFGGA      .... off
   Density functional embedding theory  .... OFF
 RI-approximation to the Coulomb term is turned on
   Number of auxiliary basis functions  .... 2499


General Settings:
 Integral files         IntName         .... moess
 Hartree-Fock type      HFTyp           .... UHF
 Total Charge           Charge          ....    1
 Multiplicity           Mult            ....    2
 Number of Electrons    NEL             ....  317
 Basis Dimension        Dim             ....  779
 Nuclear Repulsion      ENuc            ....   6105.4608305270 Eh

Convergence Acceleration:
 DIIS                   CNVDIIS         .... on
   Start iteration      DIISMaxIt       ....    12
   Startup error        DIISStart       ....  0.200000
   # of expansion vecs  DIISMaxEq       ....     5
   Bias factor          DIISBfac        ....   1.050
   Max. coefficient     DIISMaxC        ....  10.000
 Newton-Raphson         CNVNR           .... off
 SOSCF                  CNVSOSCF        .... off
 Level Shifting         CNVShift        .... on
   Level shift para.    LevelShift      ....    0.2500
   Turn off err/grad.   ShiftErr        ....    0.0010
 Zerner damping         CNVZerner       .... off
 Static damping         CNVDamp         .... on
   Fraction old density DampFac         ....    0.7000
   Max. Damping (<1)    DampMax         ....    0.9800
   Min. Damping (>=0)   DampMin         ....    0.0000
   Turn off err/grad.   DampErr         ....    0.1000
 Fernandez-Rico         CNVRico         .... off

SCF Procedure:
 Maximum # iterations   MaxIter         ....   125
 SCF integral mode      SCFMode         .... Direct
   Integral package                     .... LIBINT
 Reset frequency        DirectResetFreq ....    20
 Integral Threshold     Thresh          ....  1.000e-10 Eh
 Primitive CutOff       TCut            ....  1.000e-11 Eh

Convergence Tolerance:
 Convergence Check Mode ConvCheckMode   .... Total+1el-Energy
 Convergence forced     ConvForced      .... 0
 Energy Change          TolE            ....  1.000e-06 Eh
 1-El. energy change                    ....  1.000e-03 Eh
 DIIS Error             TolErr          ....  1.000e-06


Diagonalization of the overlap matrix:
Smallest eigenvalue                        ... 4.029e-04
Time for diagonalization                   ...    0.099 sec
Threshold for overlap eigenvalues          ... 1.000e-08
Number of eigenvalues below threshold      ... 0
Time for construction of square roots      ...    0.061 sec
Total time needed                          ...    0.163 sec

-------------------
DFT GRID GENERATION
-------------------

General Integration Accuracy     IntAcc      ...  4.340
Radial Grid Type                 RadialGrid  ... Gauss-Chebyshev
Angular Grid (max. acc.)         AngularGrid ... Lebedev-110
Angular grid pruning method      GridPruning ... 3 (G Style)
Weight generation scheme         WeightScheme... Becke
Basis function cutoff            BFCut       ...    1.0000e-10
Integration weight cutoff        WCut        ...    1.0000e-14
Grids for H and He will be reduced by one unit

# of grid points (after initial pruning)     ...  98240 (   0.1 sec)
# of grid points (after weights+screening)   ...  84685 (   2.0 sec)
nearest neighbour list constructed           ...    0.0 sec
Grid point re-assignment to atoms done       ...    0.0 sec
Grid point division into batches done        ...    0.1 sec
Reduced shell lists constructed in    1.5 sec

Total number of grid points                  ...    84685
Total number of batches                      ...     1360
Average number of points per batch           ...       62
Average number of grid points per atom       ...     1129
Average number of shells per batch           ...   125.40 (34.93%)
Average number of basis functions per batch  ...   251.61 (32.30%)
Average number of large shells per batch     ...    70.70 (56.38%)
Average number of large basis fcns per batch ...   144.91 (57.59%)
Maximum spatial batch extension              ...  20.81, 18.72, 22.36 au
Average spatial batch extension              ...   3.40,  3.14,  3.35 au

Time for grid setup =    3.518 sec

------------------------------
INITIAL GUESS: MODEL POTENTIAL
------------------------------
Loading Hartree-Fock densities                     ... done
Calculating cut-offs                               ... done
Setting up the integral package                    ... done
Initializing the effective Hamiltonian             ... done
Starting the Coulomb interaction                   ... done (   4.7 sec)
Reading the grid                                   ... done
Mapping shells                                     ... done
Starting the XC term evaluation                    ... done (   2.0 sec)
  promolecular density results
     # of electrons  =    318.133178045
     EX              =   -291.664503448
     EC              =    -12.143164272
     EX+EC           =   -303.807667720
Transforming the Hamiltonian                       ... done (   0.1 sec)
Diagonalizing the Hamiltonian                      ... done (   0.1 sec)
Back transforming the eigenvectors                 ... done (   0.0 sec)
Now organizing SCF variables                       ... done
                      ------------------
                      INITIAL GUESS DONE (  10.6 sec)
                      ------------------
--------------
SCF ITERATIONS
--------------
ITER       Energy         Delta-E        Max-DP      RMS-DP      [F,P]     Damp
               ***  Starting incremental Fock matrix formation  ***
  0  -3014.6488021308   0.000000000000 0.15110078  0.00067169  0.3668528 0.7000
  1  -3014.9294819302  -0.280679799363 0.06019299  0.00049884  0.2026627 0.7000
                               ***Turning on DIIS***
  2  -3015.1031815280  -0.173699597809 0.08046868  0.00059038  0.0263382 0.0000
  3  -3015.2772274946  -0.174045966604 0.02963682  0.00017796  0.2266153 0.7000
  4  -3015.3435420116  -0.066314517037 0.02116158  0.00012443  0.1034849 0.7000
  5  -3015.3703185266  -0.026776514979 0.04758196  0.00027204  0.0398929 0.0000
  6  -3015.3936928038  -0.023374277174 0.01842845  0.00006618  0.0462571 0.0000
  7  -3015.4002650583  -0.006572254542 0.01437095  0.00003555  0.0155172 0.0000
  8  -3015.4014928682  -0.001227809849 0.00863017  0.00002439  0.0032519 0.0000
  9  -3015.4018909262  -0.000398057985 0.00664453  0.00001635  0.0017976 0.0000
 10  -3015.4021171080  -0.000226181876 0.00480023  0.00001450  0.0013722 0.0000
 11  -3015.4022623279  -0.000145219835 0.00396970  0.00001080  0.0012710 0.0000
 12  -3015.4023529669  -0.000090639061 0.00314864  0.00000856  0.0010110 0.0000
 13  -3015.4024107299  -0.000057762963 0.01024110  0.00002927  0.0007709 0.0000
 14  -3015.4024873521  -0.000076622171 0.00045684  0.00000295  0.0014055 0.0000
 15  -3015.4024982446  -0.000010892535 0.00075660  0.00000382  0.0004177 0.0000
 16  -3015.4024996216  -0.000001376954 0.00082790  0.00000376  0.0006681 0.0000
 17  -3015.4025023913  -0.000002769732 0.00023066  0.00000133  0.0012161 0.0000
 18  -3015.4025037806  -0.000001389332 0.00075972  0.00000251  0.0003791 0.0000
 19  -3015.4025044558  -0.000000675201 0.00020269  0.00000100  0.0003360 0.0000
               *** Restarting incremental Fock matrix formation ***
                                   *** Resetting DIIS ***
 20  -3015.4025073595  -0.000002903715 0.00036131  0.00000253  0.0001292 0.0000
 21  -3015.4025039270   0.000003432573 0.00013442  0.00000102  0.0010737 0.0000
 22  -3015.4025068768  -0.000002949881 0.00027419  0.00000118  0.0003684 0.0000
 23  -3015.4025078510  -0.000000974184 0.00006717  0.00000041  0.0002253 0.0000
 24  -3015.4025077852   0.000000065784 0.00015817  0.00000042  0.0000263 0.0000
                 **** Energy Check signals convergence ****

               *****************************************************
               *                     SUCCESS                       *
               *           SCF CONVERGED AFTER  25 CYCLES          *
               *****************************************************

Setting up the final grid:

General Integration Accuracy     IntAcc      ...  4.670
Radial Grid Type                 RadialGrid  ... Gauss-Chebyshev
Angular Grid (max. acc.)         AngularGrid ... Lebedev-302
Angular grid pruning method      GridPruning ... 3 (G Style)
Weight generation scheme         WeightScheme... Becke
Basis function cutoff            BFCut       ...    1.0000e-10
Integration weight cutoff        WCut        ...    1.0000e-14
Grids for H and He will be reduced by one unit

# of grid points (after initial pruning)     ... 379152 (   0.3 sec)
# of grid points (after weights+screening)   ... 317965 (   8.0 sec)
nearest neighbour list constructed           ...    0.0 sec
Grid point re-assignment to atoms done       ...    0.0 sec
Grid point division into batches done        ...    1.0 sec
Reduced shell lists constructed in    5.4 sec

Total number of grid points                  ...   317965
Total number of batches                      ...     5010
Average number of points per batch           ...       63
Average number of grid points per atom       ...     4240
Average number of shells per batch           ...   111.36 (31.02%)
Average number of basis functions per batch  ...   221.91 (28.49%)
Average number of large shells per batch     ...    62.32 (55.96%)
Average number of large basis fcns per batch ...   126.55 (57.03%)
Maximum spatial batch extension              ...  24.44, 21.97, 20.69 au
Average spatial batch extension              ...   2.18,  2.11,  2.16 au

Final grid set up in   13.7 sec
Final integration                            ... done (  15.1 sec)
Change in XC energy                          ...     0.006212215
Integrated number of electrons               ...   317.001006639
Previous integrated no of electrons          ...   317.072734634

----------------
TOTAL SCF ENERGY
----------------

Total Energy       :        -3015.39629542 Eh          -82053.10470 eV

Components:
Nuclear Repulsion  :         6105.46083053 Eh          166138.03549 eV
Electronic Energy  :        -9120.85712595 Eh         -248191.14019 eV
One Electron Energy:       -16253.40715136 Eh         -442277.69355 eV
Two Electron Energy:         7132.55002542 Eh          194086.55336 eV

Virial components:
Potential Energy   :        -6007.90916820 Eh         -163483.51981 eV
Kinetic Energy     :         2992.51287278 Eh           81430.41511 eV
Virial Ratio       :            2.00764689


DFT components:
N(Alpha)           :      159.000504316111 electrons
N(Beta)            :      158.000502322581 electrons
N(Total)           :      317.001006638692 electrons
E(X)               :     -295.065140640214 Eh       
E(C)               :      -12.079107644536 Eh       
E(XC)              :     -307.144248284750 Eh       
DFET-embed. en.    :        0.000000000000 Eh       

---------------
SCF CONVERGENCE
---------------

  Last Energy change         ...    1.5234e-07  Tolerance :   1.0000e-06
  Last MAX-Density change    ...    5.3179e-05  Tolerance :   1.0000e-05
  Last RMS-Density change    ...    1.3196e-07  Tolerance :   1.0000e-06
  Last DIIS Error            ...    2.0348e-05  Tolerance :   1.0000e-06

             **** THE GBW FILE WAS UPDATED (moess.gbw) ****
             **** DENSITY FILE WAS UPDATED (moess.scfp.tmp) ****
             **** ENERGY FILE WAS UPDATED (moess.en.tmp) ****
----------------------
UHF SPIN CONTAMINATION
----------------------

Warning: in a DFT calculation there is little theoretical justification to 
         calculate <S**2> as in Hartree-Fock theory. We will do it anyways
         but you should keep in mind that the values have only limited relevance

Expectation value of <S**2>     :     0.768538
Ideal value S*(S+1) for S=0.5   :     0.750000
Deviation                       :     0.018538

----------------
ORBITAL ENERGIES
----------------
                 SPIN UP ORBITALS
  NO   OCC          E(Eh)            E(eV) 
   0   1.0000    -254.933813     -6937.1017 
   1   1.0000     -29.696377      -808.0795 
   2   1.0000     -25.655321      -698.1168 
   3   1.0000     -25.649819      -697.9670 
   4   1.0000     -25.634684      -697.5552 
   5   1.0000     -14.151451      -385.0806 
   6   1.0000     -14.151010      -385.0686 
   7   1.0000     -14.134190      -384.6109 
   8   1.0000     -14.133563      -384.5938 
   9   1.0000     -14.112151      -384.0112 
  10   1.0000     -14.112095      -384.0096 
  11   1.0000     -14.111946      -384.0056 
  12   1.0000     -14.111855      -384.0031 
  13   1.0000     -10.065073      -273.8846 
  14   1.0000     -10.064502      -273.8690 
  15   1.0000     -10.043615      -273.3007 
  16   1.0000     -10.042775      -273.2778 
  17   1.0000     -10.042752      -273.2772 
  18   1.0000     -10.042197      -273.2621 
  19   1.0000     -10.042169      -273.2613 
  20   1.0000     -10.042089      -273.2591 
  21   1.0000     -10.041568      -273.2450 
  22   1.0000     -10.041433      -273.2413 
  23   1.0000     -10.035414      -273.0775 
  24   1.0000     -10.035404      -273.0772 
  25   1.0000     -10.035249      -273.0730 
  26   1.0000     -10.035206      -273.0718 
  27   1.0000     -10.030727      -272.9500 
  28   1.0000     -10.030672      -272.9485 
  29   1.0000     -10.030618      -272.9470 
  30   1.0000     -10.030558      -272.9454 
  31   1.0000     -10.012613      -272.4571 
  32   1.0000     -10.012340      -272.4496 
  33   1.0000     -10.012322      -272.4491 
  34   1.0000     -10.012109      -272.4433 
  35   1.0000     -10.010195      -272.3913 
  36   1.0000     -10.010038      -272.3870 
  37   1.0000     -10.006899      -272.3016 
  38   1.0000     -10.006767      -272.2980 
  39   1.0000      -9.999983      -272.1134 
  40   1.0000      -9.999976      -272.1132 
  41   1.0000      -9.999735      -272.1066 
  42   1.0000      -9.999709      -272.1059 
  43   1.0000      -9.999136      -272.0903 
  44   1.0000      -9.999087      -272.0890 
  45   1.0000      -9.998914      -272.0843 
  46   1.0000      -9.998861      -272.0828 
  47   1.0000      -3.386835       -92.1605 
  48   1.0000      -2.218350       -60.3644 
  49   1.0000      -2.208008       -60.0829 
  50   1.0000      -2.176299       -59.2201 
  51   1.0000      -0.978615       -26.6295 
  52   1.0000      -0.977297       -26.5936 
  53   1.0000      -0.969287       -26.3756 
  54   1.0000      -0.959267       -26.1030 
  55   1.0000      -0.957863       -26.0648 
  56   1.0000      -0.954383       -25.9701 
  57   1.0000      -0.953377       -25.9427 
  58   1.0000      -0.949426       -25.8352 
  59   1.0000      -0.827514       -22.5178 
  60   1.0000      -0.817029       -22.2325 
  61   1.0000      -0.816055       -22.2060 
  62   1.0000      -0.804508       -21.8918 
  63   1.0000      -0.799981       -21.7686 
  64   1.0000      -0.788824       -21.4650 
  65   1.0000      -0.788462       -21.4551 
  66   1.0000      -0.782587       -21.2953 
  67   1.0000      -0.776409       -21.1272 
  68   1.0000      -0.776270       -21.1234 
  69   1.0000      -0.773233       -21.0407 
  70   1.0000      -0.756465       -20.5845 
  71   1.0000      -0.755221       -20.5506 
  72   1.0000      -0.753921       -20.5152 
  73   1.0000      -0.731074       -19.8935 
  74   1.0000      -0.719931       -19.5903 
  75   1.0000      -0.719129       -19.5685 
  76   1.0000      -0.675089       -18.3701 
  77   1.0000      -0.675015       -18.3681 
  78   1.0000      -0.666381       -18.1331 
  79   1.0000      -0.664980       -18.0950 
  80   1.0000      -0.630370       -17.1532 
  81   1.0000      -0.629697       -17.1349 
  82   1.0000      -0.622117       -16.9287 
  83   1.0000      -0.605286       -16.4707 
  84   1.0000      -0.603029       -16.4093 
  85   1.0000      -0.601855       -16.3773 
  86   1.0000      -0.600508       -16.3406 
  87   1.0000      -0.588580       -16.0161 
  88   1.0000      -0.585383       -15.9291 
  89   1.0000      -0.577390       -15.7116 
  90   1.0000      -0.572065       -15.5667 
  91   1.0000      -0.559146       -15.2151 
  92   1.0000      -0.557414       -15.1680 
  93   1.0000      -0.553925       -15.0731 
  94   1.0000      -0.552152       -15.0248 
  95   1.0000      -0.548185       -14.9169 
  96   1.0000      -0.531424       -14.4608 
  97   1.0000      -0.530891       -14.4463 
  98   1.0000      -0.525367       -14.2960 
  99   1.0000      -0.522442       -14.2164 
 100   1.0000      -0.521549       -14.1921 
 101   1.0000      -0.520888       -14.1741 
 102   1.0000      -0.515834       -14.0366 
 103   1.0000      -0.509920       -13.8756 
 104   1.0000      -0.496778       -13.5180 
 105   1.0000      -0.494326       -13.4513 
 106   1.0000      -0.491152       -13.3649 
 107   1.0000      -0.490153       -13.3378 
 108   1.0000      -0.482195       -13.1212 
 109   1.0000      -0.480426       -13.0730 
 110   1.0000      -0.479002       -13.0343 
 111   1.0000      -0.469256       -12.7691 
 112   1.0000      -0.465033       -12.6542 
 113   1.0000      -0.463769       -12.6198 
 114   1.0000      -0.463010       -12.5992 
 115   1.0000      -0.462541       -12.5864 
 116   1.0000      -0.462169       -12.5763 
 117   1.0000      -0.461375       -12.5547 
 118   1.0000      -0.459074       -12.4920 
 119   1.0000      -0.458077       -12.4649 
 120   1.0000      -0.453713       -12.3462 
 121   1.0000      -0.448995       -12.2178 
 122   1.0000      -0.447817       -12.1857 
 123   1.0000      -0.443442       -12.0667 
 124   1.0000      -0.439833       -11.9685 
 125   1.0000      -0.437721       -11.9110 
 126   1.0000      -0.436781       -11.8854 
 127   1.0000      -0.435361       -11.8468 
 128   1.0000      -0.434834       -11.8324 
 129   1.0000      -0.428665       -11.6646 
 130   1.0000      -0.424012       -11.5379 
 131   1.0000      -0.417131       -11.3507 
 132   1.0000      -0.416801       -11.3417 
 133   1.0000      -0.410074       -11.1587 
 134   1.0000      -0.409891       -11.1537 
 135   1.0000      -0.409000       -11.1295 
 136   1.0000      -0.408640       -11.1197 
 137   1.0000      -0.396943       -10.8014 
 138   1.0000      -0.392574       -10.6825 
 139   1.0000      -0.391954       -10.6656 
 140   1.0000      -0.389557       -10.6004 
 141   1.0000      -0.370262       -10.0753 
 142   1.0000      -0.367461        -9.9991 
 143   1.0000      -0.362053        -9.8520 
 144   1.0000      -0.345274        -9.3954 
 145   1.0000      -0.344935        -9.3862 
 146   1.0000      -0.338520        -9.2116 
 147   1.0000      -0.338067        -9.1993 
 148   1.0000      -0.337717        -9.1898 
 149   1.0000      -0.326416        -8.8822 
 150   1.0000      -0.315207        -8.5772 
 151   1.0000      -0.308615        -8.3978 
 152   1.0000      -0.296309        -8.0630 
 153   1.0000      -0.288337        -7.8461 
 154   1.0000      -0.282534        -7.6881 
 155   1.0000      -0.280105        -7.6220 
 156   1.0000      -0.275778        -7.5043 
 157   1.0000      -0.271209        -7.3800 
 158   1.0000      -0.268261        -7.2997 
 159   0.0000      -0.192853        -5.2478 
 160   0.0000      -0.192701        -5.2437 
 161   0.0000      -0.182030        -4.9533 
 162   0.0000      -0.173569        -4.7231 
 163   0.0000      -0.145719        -3.9652 
 164   0.0000      -0.143820        -3.9135 
 165   0.0000      -0.141842        -3.8597 
 166   0.0000      -0.140030        -3.8104 
 167   0.0000      -0.137713        -3.7474 
 168   0.0000      -0.084611        -2.3024 
 169   0.0000      -0.064551        -1.7565 
 170   0.0000      -0.063039        -1.7154 
 171   0.0000      -0.053674        -1.4605 
 172   0.0000      -0.051272        -1.3952 
 173   0.0000      -0.047837        -1.3017 
 174   0.0000      -0.039799        -1.0830 
 175   0.0000      -0.032952        -0.8967 
 176   0.0000      -0.031889        -0.8677 
 177   0.0000      -0.024718        -0.6726 
 178   0.0000      -0.018047        -0.4911 
 179   0.0000      -0.017541        -0.4773 
 180   0.0000      -0.016807        -0.4573 
 181   0.0000      -0.016309        -0.4438 
 182   0.0000      -0.015995        -0.4352 
 183   0.0000      -0.011547        -0.3142 
 184   0.0000      -0.006267        -0.1705 
 185   0.0000      -0.005003        -0.1361 
 186   0.0000      -0.002508        -0.0682 
 187   0.0000       0.000331         0.0090 
 188   0.0000       0.000750         0.0204 
 189   0.0000       0.001634         0.0445 
 190   0.0000       0.002242         0.0610 
 191   0.0000       0.005872         0.1598 
 192   0.0000       0.009010         0.2452 
 193   0.0000       0.015108         0.4111 
 194   0.0000       0.016476         0.4483 
 195   0.0000       0.021714         0.5909 
 196   0.0000       0.025269         0.6876 
 197   0.0000       0.025612         0.6970 
 198   0.0000       0.026465         0.7202 
 199   0.0000       0.027731         0.7546 
 200   0.0000       0.029132         0.7927 
 201   0.0000       0.029915         0.8140 
 202   0.0000       0.030017         0.8168 
 203   0.0000       0.031322         0.8523 
 204   0.0000       0.034981         0.9519 
 205   0.0000       0.038580         1.0498 
 206   0.0000       0.048001         1.3062 
 207   0.0000       0.048300         1.3143 
 208   0.0000       0.049014         1.3337 
 209   0.0000       0.061746         1.6802 
 210   0.0000       0.066873         1.8197 
 211   0.0000       0.068423         1.8619 
 212   0.0000       0.075020         2.0414 
 213   0.0000       0.082637         2.2487 
 214   0.0000       0.082917         2.2563 
 215   0.0000       0.084385         2.2962 
 216   0.0000       0.092796         2.5251 
 217   0.0000       0.093988         2.5575 
 218   0.0000       0.095106         2.5880 
 219   0.0000       0.102902         2.8001 
 220   0.0000       0.106464         2.8970 
 221   0.0000       0.114714         3.1215 
 222   0.0000       0.116613         3.1732 
 223   0.0000       0.117017         3.1842 
 224   0.0000       0.120304         3.2736 
 225   0.0000       0.137873         3.7517 
 226   0.0000       0.138496         3.7687 
 227   0.0000       0.145522         3.9598 
 228   0.0000       0.158066         4.3012 
 229   0.0000       0.161404         4.3920 
 230   0.0000       0.163196         4.4408 
 231   0.0000       0.165546         4.5047 
 232   0.0000       0.166105         4.5200 
 233   0.0000       0.168052         4.5729 
 234   0.0000       0.176009         4.7895 
 235   0.0000       0.181884         4.9493 
 236   0.0000       0.185279         5.0417 
 237   0.0000       0.198168         5.3924 
 238   0.0000       0.198748         5.4082 
 239   0.0000       0.203765         5.5447 
 240   0.0000       0.204888         5.5753 
 241   0.0000       0.206801         5.6274 
 242   0.0000       0.213993         5.8231 
 243   0.0000       0.216206         5.8833 
 244   0.0000       0.220044         5.9877 
 245   0.0000       0.242125         6.5886 
 246   0.0000       0.253584         6.9004 
 247   0.0000       0.254620         6.9286 
 248   0.0000       0.259975         7.0743 
 249   0.0000       0.261521         7.1164 
 250   0.0000       0.264131         7.1874 
 251   0.0000       0.266064         7.2400 
 252   0.0000       0.266606         7.2547 
 253   0.0000       0.267540         7.2801 
 254   0.0000       0.269797         7.3416 
 255   0.0000       0.270294         7.3551 
 256   0.0000       0.274441         7.4679 
 257   0.0000       0.280274         7.6266 
 258   0.0000       0.281809         7.6684 
 259   0.0000       0.285227         7.7614 
 260   0.0000       0.286132         7.7861 
 261   0.0000       0.290970         7.9177 
 262   0.0000       0.291661         7.9365 
 263   0.0000       0.292660         7.9637 
 264   0.0000       0.294682         8.0187 
 265   0.0000       0.297859         8.1051 
 266   0.0000       0.298671         8.1272 
 267   0.0000       0.301141         8.1945 
 268   0.0000       0.304310         8.2807 
 269   0.0000       0.305315         8.3080 
 270   0.0000       0.306589         8.3427 
 271   0.0000       0.310756         8.4561 
 272   0.0000       0.315323         8.5804 
 273   0.0000       0.318752         8.6737 
 274   0.0000       0.322282         8.7697 
 275   0.0000       0.324171         8.8211 
 276   0.0000       0.328363         8.9352 
 277   0.0000       0.334124         9.0920 
 278   0.0000       0.339322         9.2334 
 279   0.0000       0.341795         9.3007 
 280   0.0000       0.344050         9.3621 
 281   0.0000       0.346294         9.4231 
 282   0.0000       0.355694         9.6789 
 283   0.0000       0.356608         9.7038 
 284   0.0000       0.360161         9.8005 
 285   0.0000       0.364411         9.9161 
 286   0.0000       0.366856         9.9827 
 287   0.0000       0.369036        10.0420 
 288   0.0000       0.370023        10.0689 
 289   0.0000       0.371950        10.1213 
 290   0.0000       0.372702        10.1417 
 291   0.0000       0.378052        10.2873 
 292   0.0000       0.382398        10.4056 
 293   0.0000       0.385011        10.4767 
 294   0.0000       0.387200        10.5362 
 295   0.0000       0.389852        10.6084 
 296   0.0000       0.391187        10.6447 
 297   0.0000       0.391898        10.6641 
 298   0.0000       0.394717        10.7408 
 299   0.0000       0.395517        10.7626 
 300   0.0000       0.402227        10.9452 
 301   0.0000       0.405354        11.0303 
 302   0.0000       0.408253        11.1091 
 303   0.0000       0.415358        11.3025 
 304   0.0000       0.417575        11.3628 
 305   0.0000       0.429075        11.6757 
 306   0.0000       0.433264        11.7897 
 307   0.0000       0.440318        11.9817 
 308   0.0000       0.443926        12.0798 
 309   0.0000       0.453261        12.3338 
 310   0.0000       0.453550        12.3417 
 311   0.0000       0.456217        12.4143 
 312   0.0000       0.458189        12.4679 
 313   0.0000       0.464936        12.6515 
 314   0.0000       0.476794        12.9742 
 315   0.0000       0.479101        13.0370 
 316   0.0000       0.483823        13.1655 
 317   0.0000       0.486320        13.2334 
 318   0.0000       0.487224        13.2580 
 319   0.0000       0.489636        13.3237 
 320   0.0000       0.494390        13.4530 
 321   0.0000       0.496056        13.4984 
 322   0.0000       0.502086        13.6625 
 323   0.0000       0.503391        13.6980 
 324   0.0000       0.507030        13.7970 
 325   0.0000       0.508724        13.8431 
 326   0.0000       0.509924        13.8757 
 327   0.0000       0.510353        13.8874 
 328   0.0000       0.514279        13.9942 
 329   0.0000       0.519382        14.1331 
 330   0.0000       0.519768        14.1436 
 331   0.0000       0.520784        14.1712 
 332   0.0000       0.521043        14.1783 
 333   0.0000       0.524017        14.2592 
 334   0.0000       0.526681        14.3317 
 335   0.0000       0.527575        14.3561 
 336   0.0000       0.530773        14.4431 
 337   0.0000       0.532258        14.4835 
 338   0.0000       0.534561        14.5461 
 339   0.0000       0.540695        14.7131 
 340   0.0000       0.547114        14.8877 
 341   0.0000       0.547626        14.9017 
 342   0.0000       0.549822        14.9614 
 343   0.0000       0.552448        15.0329 
 344   0.0000       0.552900        15.0452 
 345   0.0000       0.555728        15.1221 
 346   0.0000       0.560283        15.2461 
 347   0.0000       0.560981        15.2651 
 348   0.0000       0.561814        15.2877 
 349   0.0000       0.568019        15.4566 
 350   0.0000       0.570364        15.5204 
 351   0.0000       0.572009        15.5652 
 352   0.0000       0.576944        15.6995 
 353   0.0000       0.578260        15.7353 
 354   0.0000       0.580359        15.7924 
 355   0.0000       0.584294        15.8994 
 356   0.0000       0.585130        15.9222 
 357   0.0000       0.586732        15.9658 
 358   0.0000       0.592490        16.1225 
 359   0.0000       0.594493        16.1770 
 360   0.0000       0.595122        16.1941 
 361   0.0000       0.601290        16.3619 
 362   0.0000       0.602220        16.3872 
 363   0.0000       0.602986        16.4081 
 364   0.0000       0.605076        16.4649 
 365   0.0000       0.606776        16.5112 
 366   0.0000       0.609977        16.5983 
 367   0.0000       0.611633        16.6434 
 368   0.0000       0.612654        16.6712 
 369   0.0000       0.617942        16.8151 
 370   0.0000       0.618465        16.8293 
 371   0.0000       0.620705        16.8902 
 372   0.0000       0.622165        16.9300 
 373   0.0000       0.622984        16.9523 
 374   0.0000       0.628936        17.1142 
 375   0.0000       0.635710        17.2985 
 376   0.0000       0.641429        17.4542 
 377   0.0000       0.655156        17.8277 
 378   0.0000       0.657769        17.8988 
 379   0.0000       0.664123        18.0717 
 380   0.0000       0.666187        18.1279 
 381   0.0000       0.667953        18.1759 
 382   0.0000       0.669947        18.2302 
 383   0.0000       0.689797        18.7703 
 384   0.0000       0.692226        18.8364 
 385   0.0000       0.707018        19.2389 
 386   0.0000       0.718905        19.5624 
 387   0.0000       0.722229        19.6528 
 388   0.0000       0.728156        19.8141 
 389   0.0000       0.735622        20.0173 
 390   0.0000       0.741935        20.1891 
 391   0.0000       0.745514        20.2865 
 392   0.0000       0.747844        20.3499 
 393   0.0000       0.753815        20.5123 
 394   0.0000       0.756479        20.5849 
 395   0.0000       0.763841        20.7852 
 396   0.0000       0.777161        21.1476 
 397   0.0000       0.788678        21.4610 
 398   0.0000       0.789164        21.4742 
 399   0.0000       0.790640        21.5144 
 400   0.0000       0.819432        22.2979 
 401   0.0000       0.829223        22.5643 
 402   0.0000       0.843571        22.9547 
 403   0.0000       0.855836        23.2885 
 404   0.0000       0.863457        23.4959 
 405   0.0000       0.864454        23.5230 
 406   0.0000       0.878148        23.8956 
 407   0.0000       0.882631        24.0176 
 408   0.0000       0.889997        24.2180 
 409   0.0000       0.895152        24.3583 
 410   0.0000       0.896895        24.4058 
 411   0.0000       0.901602        24.5338 
 412   0.0000       0.912238        24.8233 
 413   0.0000       0.916669        24.9438 
 414   0.0000       0.924081        25.1455 
 415   0.0000       0.928998        25.2793 
 416   0.0000       0.933890        25.4124 
 417   0.0000       0.945383        25.7252 
 418   0.0000       0.951028        25.8788 
 419   0.0000       0.952773        25.9263 
 420   0.0000       0.966860        26.3096 
 421   0.0000       0.968557        26.3558 
 422   0.0000       0.974055        26.5054 
 423   0.0000       0.975149        26.5351 
 424   0.0000       0.979994        26.6670 
 425   0.0000       0.990593        26.9554 
 426   0.0000       0.993980        27.0476 
 427   0.0000       1.001321        27.2473 
 428   0.0000       1.017730        27.6938 
 429   0.0000       1.023717        27.8568 
 430   0.0000       1.025695        27.9106 
 431   0.0000       1.033456        28.1218 
 432   0.0000       1.035929        28.1891 
 433   0.0000       1.038975        28.2720 
 434   0.0000       1.045168        28.4405 
 435   0.0000       1.048649        28.5352 
 436   0.0000       1.063431        28.9374 
 437   0.0000       1.068168        29.0663 
 438   0.0000       1.069511        29.1029 
 439   0.0000       1.072264        29.1778 
 440   0.0000       1.079305        29.3694 
 441   0.0000       1.083859        29.4933 
 442   0.0000       1.088179        29.6108 
 443   0.0000       1.093622        29.7590 
 444   0.0000       1.094865        29.7928 
 445   0.0000       1.099260        29.9124 
 446   0.0000       1.113462        30.2988 
 447   0.0000       1.115982        30.3674 
 448   0.0000       1.116298        30.3760 
 449   0.0000       1.122979        30.5578 
 450   0.0000       1.127082        30.6694 
 451   0.0000       1.127868        30.6909 
 452   0.0000       1.133068        30.8323 
 453   0.0000       1.135601        30.9013 
 454   0.0000       1.143097        31.1052 
 455   0.0000       1.145020        31.1576 
 456   0.0000       1.153162        31.3791 
 457   0.0000       1.154945        31.4276 
 458   0.0000       1.155605        31.4456 
 459   0.0000       1.157471        31.4964 
 460   0.0000       1.157594        31.4997 
 461   0.0000       1.158897        31.5352 
 462   0.0000       1.160394        31.5759 
 463   0.0000       1.166654        31.7463 
 464   0.0000       1.171651        31.8823 
 465   0.0000       1.174032        31.9470 
 466   0.0000       1.189478        32.3673 
 467   0.0000       1.197890        32.5962 
 468   0.0000       1.201096        32.6835 
 469   0.0000       1.207266        32.8514 
 470   0.0000       1.209767        32.9194 
 471   0.0000       1.218682        33.1620 
 472   0.0000       1.223842        33.3024 
 473   0.0000       1.227276        33.3959 
 474   0.0000       1.236034        33.6342 
 475   0.0000       1.240279        33.7497 
 476   0.0000       1.249122        33.9903 
 477   0.0000       1.257433        34.2165 
 478   0.0000       1.266542        34.4644 
 479   0.0000       1.271895        34.6100 
 480   0.0000       1.288770        35.0692 
 481   0.0000       1.294992        35.2385 
 482   0.0000       1.299204        35.3531 
 483   0.0000       1.314257        35.7627 
 484   0.0000       1.317390        35.8480 
 485   0.0000       1.326130        36.0858 
 486   0.0000       1.332559        36.2608 
 487   0.0000       1.337020        36.3822 
 488   0.0000       1.338391        36.4195 
 489   0.0000       1.341886        36.5146 
 490   0.0000       1.349451        36.7204 
 491   0.0000       1.356019        36.8991 
 492   0.0000       1.360153        37.0116 
 493   0.0000       1.361497        37.0482 
 494   0.0000       1.368119        37.2284 
 495   0.0000       1.369888        37.2765 
 496   0.0000       1.372542        37.3488 
 497   0.0000       1.383753        37.6538 
 498   0.0000       1.390977        37.8504 
 499   0.0000       1.393690        37.9242 
 500   0.0000       1.398691        38.0603 
 501   0.0000       1.430094        38.9148 
 502   0.0000       1.450705        39.4757 
 503   0.0000       1.454857        39.5887 
 504   0.0000       1.463766        39.8311 
 505   0.0000       1.464193        39.8427 
 506   0.0000       1.473631        40.0995 
 507   0.0000       1.474156        40.1138 
 508   0.0000       1.491570        40.5877 
 509   0.0000       1.493625        40.6436 
 510   0.0000       1.496360        40.7180 
 511   0.0000       1.508848        41.0579 
 512   0.0000       1.514569        41.2135 
 513   0.0000       1.516168        41.2570 
 514   0.0000       1.518493        41.3203 
 515   0.0000       1.528296        41.5871 
 516   0.0000       1.551196        42.2102 
 517   0.0000       1.551714        42.2243 
 518   0.0000       1.556497        42.3544 
 519   0.0000       1.557096        42.3707 
 520   0.0000       1.560237        42.4562 
 521   0.0000       1.562696        42.5231 
 522   0.0000       1.565208        42.5915 
 523   0.0000       1.572950        42.8022 
 524   0.0000       1.578775        42.9607 
 525   0.0000       1.586132        43.1608 
 526   0.0000       1.590395        43.2769 
 527   0.0000       1.594747        43.3953 
 528   0.0000       1.597186        43.4616 
 529   0.0000       1.600331        43.5472 
 530   0.0000       1.603784        43.6412 
 531   0.0000       1.605822        43.6966 
 532   0.0000       1.607566        43.7441 
 533   0.0000       1.608498        43.7694 
 534   0.0000       1.608625        43.7729 
 535   0.0000       1.617859        44.0242 
 536   0.0000       1.618136        44.0317 
 537   0.0000       1.623004        44.1642 
 538   0.0000       1.628666        44.3182 
 539   0.0000       1.632415        44.4203 
 540   0.0000       1.638483        44.5854 
 541   0.0000       1.644680        44.7540 
 542   0.0000       1.647204        44.8227 
 543   0.0000       1.647884        44.8412 
 544   0.0000       1.649163        44.8760 
 545   0.0000       1.649582        44.8874 
 546   0.0000       1.651088        44.9284 
 547   0.0000       1.651725        44.9457 
 548   0.0000       1.656558        45.0772 
 549   0.0000       1.662122        45.2286 
 550   0.0000       1.668696        45.4075 
 551   0.0000       1.673667        45.5428 
 552   0.0000       1.675609        45.5957 
 553   0.0000       1.678599        45.6770 
 554   0.0000       1.682121        45.7728 
 555   0.0000       1.690568        46.0027 
 556   0.0000       1.696745        46.1708 
 557   0.0000       1.706006        46.4228 
 558   0.0000       1.715536        46.6821 
 559   0.0000       1.717350        46.7315 
 560   0.0000       1.719463        46.7890 
 561   0.0000       1.720449        46.8158 
 562   0.0000       1.721736        46.8508 
 563   0.0000       1.731853        47.1261 
 564   0.0000       1.738233        47.2997 
 565   0.0000       1.748778        47.5867 
 566   0.0000       1.754818        47.7510 
 567   0.0000       1.755800        47.7778 
 568   0.0000       1.759256        47.8718 
 569   0.0000       1.764396        48.0117 
 570   0.0000       1.768927        48.1349 
 571   0.0000       1.772885        48.2426 
 572   0.0000       1.777490        48.3680 
 573   0.0000       1.781084        48.4657 
 574   0.0000       1.794995        48.8443 
 575   0.0000       1.796797        48.8933 
 576   0.0000       1.798602        48.9424 
 577   0.0000       1.804551        49.1043 
 578   0.0000       1.806921        49.1688 
 579   0.0000       1.813854        49.3575 
 580   0.0000       1.817759        49.4637 
 581   0.0000       1.825994        49.6878 
 582   0.0000       1.828271        49.7498 
 583   0.0000       1.835679        49.9514 
 584   0.0000       1.840499        50.0825 
 585   0.0000       1.845099        50.2077 
 586   0.0000       1.845935        50.2304 
 587   0.0000       1.849673        50.3322 
 588   0.0000       1.852205        50.4011 
 589   0.0000       1.866784        50.7978 
 590   0.0000       1.867435        50.8155 
 591   0.0000       1.870775        50.9064 
 592   0.0000       1.873762        50.9877 
 593   0.0000       1.874203        50.9997 
 594   0.0000       1.876847        51.0716 
 595   0.0000       1.881519        51.1987 
 596   0.0000       1.884525        51.2805 
 597   0.0000       1.890998        51.4567 
 598   0.0000       1.892207        51.4896 
 599   0.0000       1.900776        51.7227 
 600   0.0000       1.906557        51.8801 
 601   0.0000       1.917581        52.1800 
 602   0.0000       1.920149        52.2499 
 603   0.0000       1.924141        52.3585 
 604   0.0000       1.927372        52.4465 
 605   0.0000       1.928036        52.4645 
 606   0.0000       1.933315        52.6082 
 607   0.0000       1.942864        52.8680 
 608   0.0000       1.947909        53.0053 
 609   0.0000       1.965429        53.4820 
 610   0.0000       1.977605        53.8134 
 611   0.0000       1.981711        53.9251 
 612   0.0000       1.983666        53.9783 
 613   0.0000       1.986463        54.0544 
 614   0.0000       1.990195        54.1560 
 615   0.0000       2.006930        54.6113 
 616   0.0000       2.007889        54.6374 
 617   0.0000       2.011098        54.7248 
 618   0.0000       2.014411        54.8149 
 619   0.0000       2.016980        54.8848 
 620   0.0000       2.022667        55.0396 
 621   0.0000       2.025151        55.1072 
 622   0.0000       2.033236        55.3272 
 623   0.0000       2.034715        55.3674 
 624   0.0000       2.042869        55.5893 
 625   0.0000       2.043715        55.6123 
 626   0.0000       2.054257        55.8992 
 627   0.0000       2.064106        56.1672 
 628   0.0000       2.064804        56.1862 
 629   0.0000       2.069049        56.3017 
 630   0.0000       2.070998        56.3547 
 631   0.0000       2.081972        56.6533 
 632   0.0000       2.084808        56.7305 
 633   0.0000       2.087015        56.7906 
 634   0.0000       2.093441        56.9654 
 635   0.0000       2.103435        57.2374 
 636   0.0000       2.105928        57.3052 
 637   0.0000       2.115471        57.5649 
 638   0.0000       2.121350        57.7249 
 639   0.0000       2.124356        57.8067 
 640   0.0000       2.142261        58.2939 
 641   0.0000       2.147253        58.4297 
 642   0.0000       2.148209        58.4557 
 643   0.0000       2.151702        58.5508 
 644   0.0000       2.156246        58.6744 
 645   0.0000       2.168114        58.9974 
 646   0.0000       2.169207        59.0271 
 647   0.0000       2.170994        59.0757 
 648   0.0000       2.184020        59.4302 
 649   0.0000       2.188165        59.5430 
 650   0.0000       2.205269        60.0084 
 651   0.0000       2.207432        60.0673 
 652   0.0000       2.208366        60.0927 
 653   0.0000       2.212172        60.1963 
 654   0.0000       2.213286        60.2266 
 655   0.0000       2.214252        60.2529 
 656   0.0000       2.218478        60.3678 
 657   0.0000       2.220566        60.4247 
 658   0.0000       2.231363        60.7185 
 659   0.0000       2.234430        60.8019 
 660   0.0000       2.247870        61.1677 
 661   0.0000       2.259705        61.4897 
 662   0.0000       2.260629        61.5148 
 663   0.0000       2.276559        61.9483 
 664   0.0000       2.277065        61.9621 
 665   0.0000       2.292217        62.3744 
 666   0.0000       2.295223        62.4562 
 667   0.0000       2.299365        62.5689 
 668   0.0000       2.350445        63.9589 
 669   0.0000       2.365125        64.3583 
 670   0.0000       2.365478        64.3679 
 671   0.0000       2.379130        64.7394 
 672   0.0000       2.386940        64.9519 
 673   0.0000       2.389221        65.0140 
 674   0.0000       2.397282        65.2333 
 675   0.0000       2.401661        65.3525 
 676   0.0000       2.402197        65.3671 
 677   0.0000       2.406444        65.4827 
 678   0.0000       2.421314        65.8873 
 679   0.0000       2.423892        65.9574 
 680   0.0000       2.426471        66.0276 
 681   0.0000       2.436270        66.2943 
 682   0.0000       2.458098        66.8882 
 683   0.0000       2.462961        67.0206 
 684   0.0000       2.464766        67.0697 
 685   0.0000       2.473115        67.2969 
 686   0.0000       2.476556        67.3905 
 687   0.0000       2.481428        67.5231 
 688   0.0000       2.491960        67.8097 
 689   0.0000       2.497744        67.9671 
 690   0.0000       2.504003        68.1374 
 691   0.0000       2.507321        68.2277 
 692   0.0000       2.507753        68.2394 
 693   0.0000       2.512361        68.3648 
 694   0.0000       2.518141        68.5221 
 695   0.0000       2.521049        68.6012 
 696   0.0000       2.525054        68.7102 
 697   0.0000       2.525709        68.7280 
 698   0.0000       2.527288        68.7710 
 699   0.0000       2.529885        68.8417 
 700   0.0000       2.534277        68.9612 
 701   0.0000       2.535177        68.9857 
 702   0.0000       2.546700        69.2992 
 703   0.0000       2.552587        69.4594 
 704   0.0000       2.553625        69.4877 
 705   0.0000       2.555644        69.5426 
 706   0.0000       2.555811        69.5472 
 707   0.0000       2.558583        69.6226 
 708   0.0000       2.559917        69.6589 
 709   0.0000       2.563369        69.7528 
 710   0.0000       2.564710        69.7893 
 711   0.0000       2.571755        69.9810 
 712   0.0000       2.577789        70.1452 
 713   0.0000       2.579786        70.1995 
 714   0.0000       2.595474        70.6264 
 715   0.0000       2.597174        70.6727 
 716   0.0000       2.601588        70.7928 
 717   0.0000       2.609993        71.0215 
 718   0.0000       2.611402        71.0599 
 719   0.0000       2.659003        72.3551 
 720   0.0000       2.666130        72.5491 
 721   0.0000       2.667121        72.5761 
 722   0.0000       2.675869        72.8141 
 723   0.0000       2.685977        73.0891 
 724   0.0000       2.696086        73.3642 
 725   0.0000       2.722454        74.0817 
 726   0.0000       2.727719        74.2250 
 727   0.0000       2.734149        74.4000 
 728   0.0000       2.739383        74.5424 
 729   0.0000       2.743840        74.6637 
 730   0.0000       2.750512        74.8452 
 731   0.0000       2.751451        74.8708 
 732   0.0000       2.758151        75.0531 
 733   0.0000       2.760051        75.1048 
 734   0.0000       2.764203        75.2178 
 735   0.0000       2.773574        75.4728 
 736   0.0000       2.774177        75.4892 
 737   0.0000       2.780234        75.6540 
 738   0.0000       2.822071        76.7925 
 739   0.0000       2.825624        76.8891 
 740   0.0000       2.828968        76.9801 
 741   0.0000       2.833425        77.1014 
 742   0.0000       2.841660        77.3255 
 743   0.0000       2.853871        77.6578 
[...]
      pz      :     0.012791  p :     0.013002
      px      :     0.000173
      py      :     0.000038
      dz2     :    -0.000039  d :    -0.000183
      dxz     :    -0.000024
      dyz     :    -0.000086
      dx2y2   :    -0.000010
      dxy     :    -0.000023
 47 C s       :    -0.000308  s :    -0.000308
      pz      :    -0.002275  p :    -0.003228
      px      :    -0.000717
      py      :    -0.000236
      dz2     :     0.000006  d :     0.000328
      dxz     :     0.000289
      dyz     :     0.000030
      dx2y2   :    -0.000000
      dxy     :     0.000004
 48 C s       :    -0.000214  s :    -0.000214
      pz      :    -0.003374  p :    -0.003848
      px      :    -0.000309
      py      :    -0.000165
      dz2     :     0.000014  d :     0.000304
      dxz     :     0.000279
      dyz     :     0.000010
      dx2y2   :     0.000004
      dxy     :    -0.000003
 49 C s       :    -0.000319  s :    -0.000319
      pz      :    -0.002694  p :    -0.003673
      px      :    -0.000732
      py      :    -0.000246
      dz2     :     0.000011  d :     0.000319
      dxz     :     0.000274
      dyz     :     0.000028
      dx2y2   :     0.000001
      dxy     :     0.000005
 50 C s       :     0.000017  s :     0.000017
      pz      :    -0.000233  p :     0.004537
      px      :     0.004739
      py      :     0.000031
      dz2     :    -0.000006  d :     0.000103
      dxz     :     0.000094
      dyz     :    -0.000014
      dx2y2   :    -0.000020
      dxy     :     0.000048
 51 H s       :    -0.000346  s :    -0.000346
      pz      :    -0.000026  p :     0.000183
      px      :     0.000190
      py      :     0.000019
 52 C s       :     0.000033  s :     0.000033
      pz      :    -0.000294  p :     0.005228
      px      :     0.005427
      py      :     0.000096
      dz2     :    -0.000005  d :     0.000097
      dxz     :     0.000089
      dyz     :    -0.000015
      dx2y2   :    -0.000016
      dxy     :     0.000044
 53 H s       :    -0.000357  s :    -0.000357
      pz      :    -0.000026  p :     0.000169
      px      :     0.000176
      py      :     0.000019
 54 H s       :     0.000124  s :     0.000124
      pz      :    -0.000071  p :    -0.000090
      px      :    -0.000005
      py      :    -0.000014
 55 C s       :     0.000018  s :     0.000018
      pz      :    -0.000117  p :     0.004969
      px      :     0.005124
      py      :    -0.000038
      dz2     :     0.000040  d :     0.000746
      dxz     :     0.000678
      dyz     :     0.000033
      dx2y2   :    -0.000011
      dxy     :     0.000006
 56 H s       :    -0.000256  s :    -0.000256
      pz      :    -0.000011  p :     0.000137
      px      :     0.000130
      py      :     0.000018
 57 H s       :    -0.000278  s :    -0.000278
      pz      :    -0.000014  p :     0.000156
      px      :     0.000151
      py      :     0.000019
 58 N s       :     0.000731  s :     0.000731
      pz      :     0.001132  p :     0.023940
      px      :     0.021970
      py      :     0.000837
      dz2     :    -0.000019  d :    -0.000030
      dxz     :     0.000034
      dyz     :    -0.000013
      dx2y2   :    -0.000030
      dxy     :    -0.000001
 59 C s       :    -0.000142  s :    -0.000142
      pz      :    -0.000202  p :    -0.000811
      px      :    -0.000150
      py      :    -0.000460
      dz2     :     0.000023  d :     0.000590
      dxz     :     0.000013
      dyz     :     0.000017
      dx2y2   :     0.000009
      dxy     :     0.000529
 60 C s       :    -0.000143  s :    -0.000143
      pz      :    -0.000199  p :    -0.000816
      px      :    -0.000153
      py      :    -0.000464
      dz2     :     0.000013  d :     0.000588
      dxz     :     0.000007
      dyz     :     0.000026
      dx2y2   :     0.000088
      dxy     :     0.000453
 61 H s       :     0.000053  s :     0.000053
      pz      :    -0.000005  p :    -0.000023
      px      :    -0.000007
      py      :    -0.000010
 62 H s       :     0.001518  s :     0.001518
      pz      :    -0.000004  p :    -0.000026
      px      :    -0.000016
      py      :    -0.000006
 63 H s       :     0.001010  s :     0.001010
      pz      :    -0.000004  p :    -0.000029
      px      :    -0.000010
      py      :    -0.000015
 64 H s       :     0.000020  s :     0.000020
      pz      :    -0.000005  p :    -0.000022
      px      :    -0.000007
      py      :    -0.000010
 65 H s       :     0.001149  s :     0.001149
      pz      :    -0.000003  p :    -0.000031
      px      :    -0.000012
      py      :    -0.000016
 66 H s       :     0.001417  s :     0.001417
      pz      :    -0.000004  p :    -0.000025
      px      :    -0.000014
      py      :    -0.000007
 67 H s       :    -0.000420  s :    -0.000420
      pz      :     0.000301  p :     0.000347
      px      :     0.000051
      py      :    -0.000005
 68 H s       :    -0.000056  s :    -0.000056
      pz      :    -0.000056  p :    -0.000096
      px      :    -0.000029
      py      :    -0.000010
 69 H s       :    -0.000045  s :    -0.000045
      pz      :    -0.000067  p :    -0.000108
      px      :    -0.000029
      py      :    -0.000012
 70 H s       :    -0.000410  s :    -0.000410
      pz      :     0.000293  p :     0.000337
      px      :     0.000049
      py      :    -0.000005
 71 H s       :    -0.000396  s :    -0.000396
      pz      :     0.000282  p :     0.000326
      px      :     0.000048
      py      :    -0.000005
 72 H s       :    -0.000408  s :    -0.000408
      pz      :     0.000293  p :     0.000337
      px      :     0.000049
      py      :    -0.000005
 73 H s       :    -0.000057  s :    -0.000057
      pz      :    -0.000056  p :    -0.000095
      px      :    -0.000028
      py      :    -0.000010
 74 H s       :    -0.000041  s :    -0.000041
      pz      :    -0.000067  p :    -0.000107
      px      :    -0.000029
      py      :    -0.000012


                      *****************************
                      * MAYER POPULATION ANALYSIS *
                      *****************************

  NA   - Mulliken gross atomic population
  ZA   - Total nuclear charge
  QA   - Mulliken gross atomic charge
  VA   - Mayer's total valence
  BVA  - Mayer's bonded valence
  FA   - Mayer's free valence

  ATOM       NA         ZA         QA         VA         BVA        FA
  0 Fe    25.6228    26.0000     0.3772     5.5010     4.8344     0.6666
  1 N      7.1927     7.0000    -0.1927     3.3369     3.3366     0.0003
  2 N      7.1933     7.0000    -0.1933     3.3371     3.3367     0.0003
  3 N      7.1400     7.0000    -0.1400     3.3877     3.3873     0.0004
  4 N      7.2639     7.0000    -0.2639     3.4417     3.4411     0.0006
  5 C      5.8630     6.0000     0.1370     3.8998     3.8998     0.0000
  6 C      5.9322     6.0000     0.0678     3.9639     3.9638     0.0001
  7 C      5.9371     6.0000     0.0629     3.9641     3.9640     0.0001
  8 C      5.8635     6.0000     0.1365     3.8998     3.8998     0.0000
  9 C      6.0115     6.0000    -0.0115     3.7327     3.7325     0.0002
 10 C      6.0047     6.0000    -0.0047     3.7246     3.7246     0.0000
 11 C      6.0029     6.0000    -0.0029     3.7236     3.7236     0.0000
 12 C      6.0104     6.0000    -0.0104     3.7317     3.7315     0.0002
 13 C      6.0679     6.0000    -0.0679     3.7814     3.7814     0.0000
 14 C      6.0479     6.0000    -0.0479     3.6922     3.6921     0.0000
 15 C      5.8747     6.0000     0.1253     3.9588     3.9587     0.0000
 16 C      6.0766     6.0000    -0.0766     3.9252     3.9251     0.0000
 17 C      5.8065     6.0000     0.1935     3.8576     3.8576     0.0000
 18 C      6.0746     6.0000    -0.0746     3.9278     3.9278     0.0000
 19 C      5.8730     6.0000     0.1270     3.9571     3.9571     0.0000
 20 C      5.9424     6.0000     0.0576     3.9395     3.9395     0.0000
 21 C      5.9409     6.0000     0.0591     3.9390     3.9390     0.0000
 22 H      0.9835     1.0000     0.0165     1.0075     1.0075     0.0000
 23 H      1.0032     1.0000    -0.0032     1.0026     1.0026     0.0000
 24 H      1.0034     1.0000    -0.0034     1.0026     1.0026     0.0000
 25 H      0.9859     1.0000     0.0141     1.0093     1.0093     0.0000
 26 H      0.9385     1.0000     0.0615     0.9978     0.9978     0.0000
 27 H      0.9331     1.0000     0.0669     0.9838     0.9838     0.0000
 28 H      0.9331     1.0000     0.0669     0.9852     0.9852     0.0000
 29 H      0.9390     1.0000     0.0610     0.9979     0.9979     0.0000
 30 H      0.9331     1.0000     0.0669     0.9841     0.9841     0.0000
 31 H      0.9340     1.0000     0.0660     0.9852     0.9852     0.0000
 32 H      0.9994     1.0000     0.0006     0.9965     0.9965     0.0000
 33 H      1.0016     1.0000    -0.0016     0.9975     0.9975     0.0000
 34 N      7.1911     7.0000    -0.1911     3.3365     3.3362     0.0003
 35 N      7.1933     7.0000    -0.1933     3.3344     3.3341     0.0003
 36 N      7.1467     7.0000    -0.1467     3.3847     3.3843     0.0004
 37 C      6.0680     6.0000    -0.0680     3.7804     3.7804     0.0000
 38 C      5.8636     6.0000     0.1364     3.9009     3.9009     0.0000
 39 C      5.8622     6.0000     0.1378     3.9004     3.9003     0.0000
 40 C      5.9411     6.0000     0.0589     3.9687     3.9686     0.0001
 41 C      5.9423     6.0000     0.0577     3.9680     3.9679     0.0001
 42 C      5.8791     6.0000     0.1209     3.9571     3.9571     0.0000
 43 C      5.8812     6.0000     0.1188     3.9642     3.9642     0.0000
 44 H      0.9987     1.0000     0.0013     0.9965     0.9965     0.0000
 45 C      6.0118     6.0000    -0.0118     3.7311     3.7309     0.0002
 46 C      6.0110     6.0000    -0.0110     3.7316     3.7314     0.0002
 47 C      6.0021     6.0000    -0.0021     3.7232     3.7232     0.0000
 48 C      6.0408     6.0000    -0.0408     3.6878     3.6878     0.0000
 49 C      6.0031     6.0000    -0.0031     3.7239     3.7239     0.0000
 50 C      6.0725     6.0000    -0.0725     3.9232     3.9232     0.0000
 51 H      0.9775     1.0000     0.0225     1.0052     1.0052     0.0000
 52 C      6.0782     6.0000    -0.0782     3.9236     3.9235     0.0000
 53 H      0.9750     1.0000     0.0250     1.0024     1.0024     0.0000
 54 H      1.0016     1.0000    -0.0016     0.9976     0.9976     0.0000
 55 C      5.8041     6.0000     0.1959     3.8597     3.8597     0.0000
 56 H      1.0028     1.0000    -0.0028     1.0027     1.0027     0.0000
 57 H      1.0022     1.0000    -0.0022     1.0024     1.0024     0.0000
 58 N      7.2666     7.0000    -0.2666     3.4354     3.4348     0.0006
 59 C      5.9424     6.0000     0.0576     3.9381     3.9381     0.0000
 60 C      5.9342     6.0000     0.0658     3.9364     3.9364     0.0000
 61 H      0.9388     1.0000     0.0612     0.9971     0.9971     0.0000
 62 H      0.9358     1.0000     0.0642     0.9852     0.9852     0.0000
 63 H      0.9317     1.0000     0.0683     0.9855     0.9854     0.0000
 64 H      0.9393     1.0000     0.0607     0.9980     0.9980     0.0000
 65 H      0.9312     1.0000     0.0688     0.9845     0.9845     0.0000
 66 H      0.9415     1.0000     0.0585     0.9868     0.9868     0.0000
 67 H      0.9929     1.0000     0.0071     0.9928     0.9928     0.0000
 68 H      0.9963     1.0000     0.0037     0.9931     0.9931     0.0000
 69 H      0.9969     1.0000     0.0031     0.9931     0.9931     0.0000
 70 H      0.9928     1.0000     0.0072     0.9927     0.9927     0.0000
 71 H      0.9931     1.0000     0.0069     0.9928     0.9928     0.0000
 72 H      0.9927     1.0000     0.0073     0.9928     0.9928     0.0000
 73 H      0.9966     1.0000     0.0034     0.9931     0.9931     0.0000
 74 H      0.9968     1.0000     0.0032     0.9931     0.9931     0.0000

  Mayer bond orders larger than 0.1
B(  0-Fe,  1-N ) :   0.6998 B(  0-Fe,  2-N ) :   0.7000 B(  0-Fe,  3-N ) :   0.6567 
B(  0-Fe, 34-N ) :   0.6985 B(  0-Fe, 35-N ) :   0.6962 B(  0-Fe, 36-N ) :   0.6452 
B(  1-N ,  5-C ) :   1.2274 B(  1-N ,  6-C ) :   1.2539 B(  2-N ,  7-C ) :   1.2533 
B(  2-N ,  8-C ) :   1.2273 B(  3-N , 15-C ) :   1.2944 B(  3-N , 19-C ) :   1.2915 
B(  4-N , 17-C ) :   1.2769 B(  4-N , 20-C ) :   0.9901 B(  4-N , 21-C ) :   0.9902 
B(  5-C ,  9-C ) :   1.1239 B(  5-C , 13-C ) :   1.3114 B(  6-C , 10-C ) :   1.1334 
B(  6-C , 14-C ) :   1.2816 B(  7-C , 11-C ) :   1.1322 B(  7-C , 14-C ) :   1.2814 
B(  8-C , 12-C ) :   1.1229 B(  8-C , 37-C ) :   1.3115 B(  9-C , 10-C ) :   1.4759 
B(  9-C , 67-H ) :   1.0041 B( 10-C , 68-H ) :   1.0071 B( 11-C , 12-C ) :   1.4770 
B( 11-C , 69-H ) :   1.0076 B( 12-C , 70-H ) :   1.0040 B( 13-C , 32-H ) :   0.9485 
B( 13-C , 38-C ) :   1.3122 B( 14-C , 33-H ) :   0.9610 B( 15-C , 16-C ) :   1.5188 
B( 15-C , 22-H ) :   0.9301 B( 16-C , 17-C ) :   1.2413 B( 16-C , 23-H ) :   0.9640 
B( 17-C , 18-C ) :   1.2403 B( 18-C , 19-C ) :   1.5212 B( 18-C , 24-H ) :   0.9638 
B( 19-C , 25-H ) :   0.9280 B( 20-C , 26-H ) :   0.9616 B( 20-C , 27-H ) :   0.9589 
B( 20-C , 28-H ) :   0.9593 B( 21-C , 29-H ) :   0.9617 B( 21-C , 30-H ) :   0.9574 
B( 21-C , 31-H ) :   0.9608 B( 34-N , 39-C ) :   1.2271 B( 34-N , 40-C ) :   1.2549 
B( 35-N , 38-C ) :   1.2267 B( 35-N , 41-C ) :   1.2547 B( 36-N , 42-C ) :   1.2929 
B( 36-N , 43-C ) :   1.2983 B( 37-C , 39-C ) :   1.3113 B( 37-C , 44-H ) :   0.9487 
B( 38-C , 45-C ) :   1.1235 B( 39-C , 46-C ) :   1.1232 B( 40-C , 47-C ) :   1.1332 
B( 40-C , 48-C ) :   1.2795 B( 41-C , 48-C ) :   1.2788 B( 41-C , 49-C ) :   1.1341 
B( 42-C , 50-C ) :   1.5176 B( 42-C , 51-H ) :   0.9331 B( 43-C , 52-C ) :   1.5171 
B( 43-C , 53-H ) :   0.9356 B( 45-C , 49-C ) :   1.4751 B( 45-C , 71-H ) :   1.0041 
B( 46-C , 47-C ) :   1.4756 B( 46-C , 72-H ) :   1.0042 B( 47-C , 73-H ) :   1.0075 
B( 48-C , 54-H ) :   0.9618 B( 49-C , 74-H ) :   1.0075 B( 50-C , 55-C ) :   1.2422 
B( 50-C , 56-H ) :   0.9649 B( 52-C , 55-C ) :   1.2437 B( 52-C , 57-H ) :   0.9639 
B( 55-C , 58-N ) :   1.2722 B( 58-N , 59-C ) :   0.9899 B( 58-N , 60-C ) :   0.9888 
B( 59-C , 61-H ) :   0.9621 B( 59-C , 62-H ) :   0.9617 B( 59-C , 63-H ) :   0.9568 
B( 60-C , 64-H ) :   0.9627 B( 60-C , 65-H ) :   0.9590 B( 60-C , 66-H ) :   0.9602 


-------
TIMINGS
-------

Total SCF time: 0 days 0 hours 6 min 30 sec 

Total time                  ....     390.944 sec
Sum of individual times     ....     388.836 sec  ( 99.5%)

Fock matrix formation       ....     349.718 sec  ( 89.5%)
  Split-RI-J                ....     245.616 sec  ( 70.2% of F)
  XC integration            ....     103.145 sec  ( 29.5% of F)
    Basis function eval.    ....      21.460 sec  ( 20.8% of XC)
    Density eval.           ....      37.216 sec  ( 36.1% of XC)
    XC-Functional eval.     ....       2.830 sec  (  2.7% of XC)
    XC-Potential eval.      ....      40.247 sec  ( 39.0% of XC)
Diagonalization             ....       9.206 sec  (  2.4%)
Density matrix formation    ....       1.713 sec  (  0.4%)
Population analysis         ....       0.297 sec  (  0.1%)
Initial guess               ....       7.073 sec  (  1.8%)
Orbital Transformation      ....       0.000 sec  (  0.0%)
Orbital Orthonormalization  ....       0.000 sec  (  0.0%)
DIIS solution               ....       3.599 sec  (  0.9%)
Grid generation             ....      17.231 sec  (  4.4%)

-------------------------   --------------------
FINAL SINGLE POINT ENERGY     -3015.396295418148
-------------------------   --------------------


                            ***************************************
                            *     ORCA property calculations      *
                            ***************************************

                                    ---------------------
                                    Active property flags
                                    ---------------------
   (+) Dipole Moment
   (+) Nuclear properties (Hyperfine,Quadrupole)


------------------------------------------------------------------------------
                       ORCA ELECTRIC PROPERTIES CALCULATION
------------------------------------------------------------------------------

Dipole Moment Calculation                       ... on
Quadrupole Moment Calculation                   ... off
Polarizability Calculation                      ... off
GBWName                                         ... moess.gbw
Electron density file                           ... moess.scfp.tmp
The origin for moment calculation is the CENTER OF MASS  = (-0.048119,  0.002937  0.010034)

-------------
DIPOLE MOMENT
-------------
                                X             Y             Z
Electronic contribution:     -1.65731       0.10353       0.32427
Nuclear contribution   :      1.83470      -0.09780      -0.38693
                        -----------------------------------------
Total Dipole Moment    :      0.17738       0.00574      -0.06267
                        -----------------------------------------
Magnitude (a.u.)       :      0.18822
Magnitude (Debye)      :      0.47841



--------------------
Rotational spectrum 
--------------------
 
Rotational constants in cm-1:     0.004197     0.002175     0.002090 
Rotational constants in MHz :   125.835671    65.190757    62.654453 

 Dipole components along the rotational axes: 
x,y,z [a.u.] :    -0.053177     0.000824    -0.180546 
x,y,z [Debye]:    -0.135166     0.002095    -0.458912 

 
------------------------------------------------------------------------------
                                ORCA EPR/NMR CALCULATION
------------------------------------------------------------------------------

GBWName                      ... moess.gbw
Electron density file        ... moess.scfp.tmp
Spin density file            ... moess.scfr.tmp
Multiplicity                 ... 2
g-tensor                     ... 0
NMR chemical shifts          ... 0
Number of nuclei for epr/nmr ... 1
   Nucleus:   0Fe
       Hyperfine : Isotope=   57 I=   0.500 P=  17.280
       Quadrupole: Isotope=   57 I=   0.500 Q=   0.160
       Spin-Orbit: Zeff=  13.910
       Ncuelar Spin-Spin: Gn=   0.000
       rho(0)=Y f(grad)=Y a(iso)=N a(dip)=N a(orb)=N sigma(nmr)=N spin-spin(nmr)=all-N,DSO-N,PSO-N,FC-N,SD-N

-----------------------------------------
ELECTRIC AND MAGNETIC HYPERFINE STRUCTURE
-----------------------------------------

 -----------------------------------------------------------
 Nucleus   0Fe: A:ISTP=   57 I=  0.5 P= 17.2798 MHz/au**3
                Q:ISTP=   57 I=  0.5 Q=  0.1600 barn     
 -----------------------------------------------------------
 Raw EFG matrix (all values in a.u.**-3):
             0.2959       0.0339      -0.0642
             0.0339      -1.0750       0.0027
            -0.0642       0.0027       0.7790

 V(El)       0.3320       0.8295      -1.1615
 V(Nuc)     -0.0436      -0.0421       0.0857
         ----------   ----------   ----------
 V(Tot)      0.2884       0.7874      -1.0758 
 Orientation: 
  X       0.9912473   -0.1296633    0.0248226
  Y       0.0249134   -0.0009221   -0.9996892
  Z       0.1296459    0.9915577    0.0023163

Note: Tensor is right-handed

Moessbauer quadrupole splitting parameter (proper coordinate system)
 e**2qQ  =  -40.444 MHz =   -3.487 mm/s
 eta     =  0.464
 Delta-EQ=(1/2{e**2qQ}*sqrt(1+1/3*eta**2) =  -20.935 MHz =   -1.805 mm/s
 RHO(0)=  11189.459116494 a.u.**-3


------------------------------------------------------------------------------- 

Timings for individual modules:

Sum of individual times         ...      392.713 sec (=   6.545 min)
GTO integral calculation        ...        1.068 sec (=   0.018 min)   0.3 %
SCF iterations                  ...      390.976 sec (=   6.516 min)  99.6 %
EPR/NMR calculation             ...        0.668 sec (=   0.011 min)   0.2 %
                             ****ORCA TERMINATED NORMALLY****
TOTAL RUN TIME: 0 days 0 hours 6 minutes 33 seconds 87 msec
