
                                 *****************
                                 * O   R   C   A *
                                 *****************

           --- An Ab Initio, DFT and Semiempirical electronic structure package ---

                  #######################################################
                  #                        -***-                        #
                  #          Department of theory and spectroscopy      #
                  #               Directorship: Frank Neese             #
                  #        Max Planck Institute fuer Kohlenforschung    #
                  #                Kaiser Wilhelm Platz 1               #
                  #                 D-45470 Muelheim/Ruhr               #
                  #                      Germany                        #
                  #                                                     #
                  #                  All rights reserved                #
                  #                        -***-                        #
                  #######################################################


                         Program Version 4.1.2  - RELEASE  -


 With contributions from (in alphabetic order):
   Daniel Aravena         : Magnetic Properties
   Michael Atanasov       : Ab Initio Ligand Field Theory
   Alexander A. Auer      : GIAO ZORA
   Ute Becker             : Parallelization
   Giovanni Bistoni       : ED, Open-shell LED
   Martin Brehm           : Molecular dynamics
   Dmytro Bykov           : SCF Hessian
   Vijay G. Chilkuri      : MRCI spin determinant printing
   Dipayan Datta          : RHF DLPNO-CCSD density
   Achintya Kumar Dutta   : EOM-CC, STEOM-CC
   Dmitry Ganyushin       : Spin-Orbit,Spin-Spin,Magnetic field MRCI
   Miquel Garcia          : C-PCM Hessian
   Yang Guo               : DLPNO-NEVPT2, CIM, IAO-localization
   Andreas Hansen         : Spin unrestricted coupled pair/coupled cluster methods
   Benjamin Helmich-Paris : CASSCF linear response (MC-RPA)
   Lee Huntington         : MR-EOM, pCC
   Robert Izsak           : Overlap fitted RIJCOSX, COSX-SCS-MP3, EOM
   Christian Kollmar      : KDIIS, OOCD, Brueckner-CCSD(T), CCSD density
   Simone Kossmann        : Meta GGA functionals, TD-DFT gradient, OOMP2, MP2 Hessian
   Martin Krupicka        : AUTO-CI
   Lucas Lang             : DCDCAS
   Dagmar Lenk            : GEPOL surface, SMD
   Dimitrios Liakos       : Extrapolation schemes; parallel MDCI
   Dimitrios Manganas     : ROCIS; embedding schemes
   Dimitrios Pantazis     : SARC Basis sets
   Taras Petrenko         : DFT Hessian,TD-DFT gradient, ASA, ECA, R-Raman, ABS, FL, XAS/XES, NRVS
   Peter Pinski           : DLPNO-MP2, DLPNO-MP2 Gradient
   Christoph Reimann      : Effective Core Potentials
   Marius Retegan         : Local ZFS, SOC
   Christoph Riplinger    : Optimizer, TS searches, QM/MM, DLPNO-CCSD(T), (RO)-DLPNO pert. Triples
   Tobias Risthaus        : Range-separated hybrids, TD-DFT gradient, RPA, STAB
   Michael Roemelt        : Restricted open shell CIS
   Masaaki Saitow         : Open-shell DLPNO
   Barbara Sandhoefer     : DKH picture change effects
   Avijit Sen             : IP-ROCIS
   Kantharuban Sivalingam : CASSCF convergence, NEVPT2, FIC-MRCI
   Bernardo de Souza      : ESD, SOC TD-DFT
   Georgi Stoychev        : AutoAux, RI-MP2 NMR
   Willem Van den Heuvel  : Paramagnetic NMR
   Boris Wezisla          : Elementary symmetry handling
   Frank Wennmohs         : Technical directorship


 We gratefully acknowledge several colleagues who have allowed us to
 interface, adapt or use parts of their codes:
   Stefan Grimme, W. Hujo, H. Kruse,             : VdW corrections, initial TS optimization,
                  C. Bannwarth                     DFT functionals, gCP, sTDA/sTD-DF
   Ed Valeev                                     : LibInt (2-el integral package), F12 methods
   Garnet Chan, S. Sharma, J. Yang, R. Olivares  : DMRG
   Ulf Ekstrom                                   : XCFun DFT Library
   Mihaly Kallay                                 : mrcc  (arbitrary order and MRCC methods)
   Andreas Klamt, Michael Diedenhofen            : otool_cosmo (COSMO solvation model)
   Jiri Pittner, Ondrej Demel                    : Mk-CCSD
   Frank Weinhold                                : gennbo (NPA and NBO analysis)
   Christopher J. Cramer and Donald G. Truhlar   : smd solvation model
   Lars Goerigk                                  : TD-DFT with DH, B97 family of functionals
   V. Asgeirsson, H. Jonsson                     : NEB implementation
   FAccTs GmbH                                   : IRC, NEB, NEB-TS, Multilevel


 Your calculation uses the libint2 library for the computation of 2-el integrals
 For citations please refer to: http://libint.valeyev.net

 This ORCA versions uses:
   CBLAS   interface :  Fast vector & matrix operations
   LAPACKE interface :  Fast linear algebra routines
   SCALAPACK package :  Parallel linear algebra routines




***************************************
The coordinates will be read from file: geom.xyz
***************************************


----- Orbital basis set information -----
Your calculation utilizes the basis: def2-SVP
   F. Weigend and R. Ahlrichs, Phys. Chem. Chem. Phys. 7, 3297 (2005).

----- AuxJ basis set information -----
Your calculation utilizes the auxiliary basis: def2/J
   F. Weigend, Phys. Chem. Chem. Phys. 8, 1057 (2006).

================================================================================
                                        WARNINGS
                       Please study these warnings very carefully!
================================================================================


WARNING: your system is open-shell and RHF/RKS was chosen
  ===> : WILL SWITCH to UHF/UKS


INFO   : the flag for use of LIBINT has been found!

================================================================================
                                       INPUT FILE
================================================================================
NAME = moess.inp
|  1> ! bp86 def2-svp
|  2> 
|  3> * xyzfile  1 2 geom.xyz
|  4> 
|  5> %eprnmr
|  6> nuclei = all Fe {fgrad, rho}
|  7> end
|  8> 
|  9> 
| 10>                          ****END OF INPUT****
================================================================================

                       ****************************
                       * Single Point Calculation *
                       ****************************

---------------------------------
CARTESIAN COORDINATES (ANGSTROEM)
---------------------------------
  Fe     0.022934   -0.015741    0.001763
  N      2.001882   -0.168113   -0.406410
  H      2.466331    0.303514    0.374597
  N     -0.031051   -1.547153    1.335126
  H      0.306429   -1.067000    2.176633
  N      0.422904    1.087192    1.571240
  N      0.936171    2.169091    1.712859
  N      1.415196    3.208288    1.923100
  C      2.308956    0.621958   -1.639286
  H      2.009045    0.020683   -2.501180
  H      3.382152    0.827744   -1.705455
  C      2.548760   -1.561539   -0.447329
  H      3.623433   -1.505097   -0.656914
  H      2.054710   -2.078051   -1.273675
  C      2.310620   -2.297055    0.871961
  H      2.661812   -1.690517    1.717555
  H      2.924541   -3.203495    0.864077
  C      0.861739   -2.724773    1.107631
  H      0.477072   -3.280429    0.247669
  H      0.810754   -3.372470    1.990460
  C     -1.455480   -1.926505    1.589333
  H     -1.540972   -2.492222    2.522788
  H     -1.784685   -2.565878    0.766310
  C      1.501896    1.906113   -1.565698
  N      0.076842    1.520762   -1.325150
  N     -1.959544    0.137464    0.405761
  H     -2.438690   -0.332712   -0.366894
  C     -2.264284   -0.643422    1.646780
  H     -1.964734   -0.033304    2.502275
  H     -3.337159   -0.849725    1.714961
  N     -0.348262   -1.139014   -1.561295
  N     -1.180131   -2.000815   -1.721108
  N     -1.950972   -2.840167   -1.952411
  C     -2.508184    1.531197    0.440942
  H     -3.581675    1.474561    0.654958
  H     -2.014882    2.051719    1.264981
  C     -2.274665    2.259171   -0.883084
  H     -2.623735    1.645942   -1.724858
  H     -2.892097    3.163392   -0.880571
  C     -0.828368    2.693499   -1.119976
  H     -0.245093    1.032794   -2.168264
  H     -0.455811    3.270520   -0.269553
  H      1.590062    2.488853   -2.488312
  H      1.826457    2.529027   -0.728275
  H     -0.778775    3.328033   -2.012219

----------------------------
CARTESIAN COORDINATES (A.U.)
----------------------------
  NO LB      ZA    FRAG     MASS         X           Y           Z
   0 Fe   26.0000    0    55.850    0.043339   -0.029746    0.003332
   1 N     7.0000    0    14.007    3.783009   -0.317688   -0.768004
   2 H     1.0000    0     1.008    4.660690    0.573558    0.707886
   3 N     7.0000    0    14.007   -0.058678   -2.923695    2.523022
   4 H     1.0000    0     1.008    0.579067   -2.016338    4.113240
   5 N     7.0000    0    14.007    0.799173    2.054495    2.969213
   6 N     7.0000    0    14.007    1.769107    4.098988    3.236834
   7 N     7.0000    0    14.007    2.674333    6.062786    3.634132
   8 C     6.0000    0    12.011    4.363294    1.175330   -3.097802
   9 H     1.0000    0     1.008    3.796545    0.039085   -4.726545
  10 H     1.0000    0     1.008    6.391341    1.564209   -3.222843
  11 C     6.0000    0    12.011    4.816458   -2.950881   -0.845329
  12 H     1.0000    0     1.008    6.847296   -2.844221   -1.241388
  13 H     1.0000    0     1.008    3.882839   -3.926947   -2.406897
  14 C     6.0000    0    12.011    4.366439   -4.340805    1.647767
  15 H     1.0000    0     1.008    5.030096   -3.194614    3.245709
  16 H     1.0000    0     1.008    5.526582   -6.053728    1.632869
  17 C     6.0000    0    12.011    1.628451   -5.149075    2.093119
  18 H     1.0000    0     1.008    0.901535   -6.199112    0.468027
  19 H     1.0000    0     1.008    1.532103   -6.373045    3.761424
  20 C     6.0000    0    12.011   -2.750459   -3.640567    3.003404
  21 H     1.0000    0     1.008   -2.912015   -4.709617    4.767378
  22 H     1.0000    0     1.008   -3.372566   -4.848807    1.448116
  23 C     6.0000    0    12.011    2.838172    3.602032   -2.958740
  24 N     7.0000    0    14.007    0.145210    2.873824   -2.504171
  25 N     7.0000    0    14.007   -3.703002    0.259769    0.766777
  26 H     1.0000    0     1.008   -4.608456   -0.628735   -0.693329
  27 C     6.0000    0    12.011   -4.278877   -1.215891    3.111963
  28 H     1.0000    0     1.008   -3.712809   -0.062935    4.728614
  29 H     1.0000    0     1.008   -6.306317   -1.605748    3.240807
  30 N     7.0000    0    14.007   -0.658120   -2.152425   -2.950420
  31 N     7.0000    0    14.007   -2.230124   -3.780992   -3.252423
  32 N     7.0000    0    14.007   -3.686803   -5.367138   -3.689522
  33 C     6.0000    0    12.011   -4.739781    2.893543    0.833260
  34 H     1.0000    0     1.008   -6.768385    2.786516    1.237691
  35 H     1.0000    0     1.008   -3.807575    3.877187    2.390468
  36 C     6.0000    0    12.011   -4.298494    4.269214   -1.668787
  37 H     1.0000    0     1.008   -4.958141    3.110380   -3.259509
  38 H     1.0000    0     1.008   -5.465271    5.977945   -1.664038
  39 C     6.0000    0    12.011   -1.565389    5.089975   -2.116448
  40 H     1.0000    0     1.008   -0.463159    1.951698   -4.097425
  41 H     1.0000    0     1.008   -0.861358    6.180387   -0.509381
  42 H     1.0000    0     1.008    3.004782    4.703251   -4.702228
  43 H     1.0000    0     1.008    3.451504    4.779168   -1.376240
  44 H     1.0000    0     1.008   -1.471671    6.289071   -3.802543

--------------------------------
INTERNAL COORDINATES (ANGSTROEM)
--------------------------------
 Fe     0   0   0     0.000000000000     0.00000000     0.00000000
 N      1   0   0     2.026340941455     0.00000000     0.00000000
 H      2   1   0     1.023775773682   104.75843053     0.00000000
 N      1   2   3     2.031254288300    95.82494615   280.01187671
 H      4   1   2     1.025950137608   100.18505126    81.85157055
 N      1   2   3     1.959514035907    90.24753630     4.50051803
 N      6   1   2     1.205821048353   133.31178658    63.24668275
 N      7   6   1     1.163441719002   176.28088019   174.84297544
 C      2   1   3     1.496158366582   109.06980618   245.74272014
 H      9   2   1     1.092858408387   107.63904045   280.67090628
 H      9   2   1     1.094749226432   110.50385649   161.80510356
 C      2   1   3     1.497459825478   115.60332401   116.85377730
 H     12   2   1     1.096372942259   108.37862391   181.04829034
 H     12   2   1     1.092573915284   107.18334854    63.72588118
 C     12   2   1     1.529124112018   111.53911774   302.31115757
 H     15  12   2     1.098295670184   110.41565065   308.79822775
 H     15  12   2     1.094803464233   107.74030858   192.90797393
 C      4   1   2     1.495197921188   118.55795123   325.66335815
 H     18   4   1     1.093735311979   108.04460434   288.99557152
 H     18   4   1     1.096128604350   108.36523982   171.66540929
 C      4   1   2     1.495836593614   109.15120082   194.00130834
 H     21   4   1     1.094843752861   110.50510788   199.04337910
 H     21   4   1     1.092950421420   107.89147969    80.65058764
 C      9   2   1     1.518491060681   107.31095441    40.15601205
 N     24   9   2     1.495706400475   107.23533778   307.27838450
 N      1   2   3     2.029015814752   179.86322264   142.63584071
 H     26   1   6     1.023543897113   105.80699621   175.66207928
 C     26   1   6     1.497590588565   108.93203304   290.28143603
 H     28  26   1     1.092632541822   107.57044294    79.27925458
 H     28  26   1     1.094655353157   110.44590719   198.09954586
 N      1   2   3     1.960275239427    88.92423662   185.14084126
 N     31   1   2     1.208406881696   130.12576572   142.20759942
 N     32  31   1     1.162845090712   175.87981986   179.79643208
 C     26   1   6     1.498244048094   115.63935708    58.83405275
 H     34  26   1     1.096080933067   108.37044423   179.31835331
 H     34  26   1     1.092396580555   107.19397279   296.40114767
 C     34  26   1     1.528895718064   111.51004570    58.00796820
 H     37  34  26     1.098400263300   110.44480249    50.96296926
 H     37  34  26     1.094917442839   107.76411362   166.89205763
 C     25  24   9     1.495598069518   113.37214500   175.40315599
 H     25  24   9     1.025961076379   106.81850639   293.25754584
 H     40  25  24     1.093147397023   108.32167271   301.88506961
 H     24   9   2     1.094794841124   111.49981533   186.25537510
 H     24   9   2     1.092995414010   111.17824975    64.94867248
 H     40  25  24     1.095988336550   108.35527372    59.04578757

---------------------------
INTERNAL COORDINATES (A.U.)
---------------------------
 Fe     0   0   0     0.000000000000     0.00000000     0.00000000
 N      1   0   0     3.829229433302     0.00000000     0.00000000
 H      2   1   0     1.934655834803   104.75843053     0.00000000
 N      1   2   3     3.838514313241    95.82494615   280.01187671
 H      4   1   2     1.938764787138   100.18505126    81.85157055
 N      1   2   3     3.702944883440    90.24753630     4.50051803
 N      6   1   2     2.278671547905   133.31178658    63.24668275
 N      7   6   1     2.198586221693   176.28088019   174.84297544
 C      2   1   3     2.827329565815   109.06980618   245.74272014
 H      9   2   1     2.065203095004   107.63904045   280.67090628
 H      9   2   1     2.068776223278   110.50385649   161.80510356
 C      2   1   3     2.829788966703   115.60332401   116.85377730
 H     12   2   1     2.071844601511   108.37862391   181.04829034
 H     12   2   1     2.064665480954   107.18334854    63.72588118
 C     12   2   1     2.889625796490   111.53911774   302.31115757
 H     15  12   2     2.075478030718   110.41565065   308.79822775
 H     15  12   2     2.068878717869   107.74030858   192.90797393
 C      4   1   2     2.825514587054   118.55795123   325.66335815
 H     18   4   1     2.066860202639   108.04460434   288.99557152
 H     18   4   1     2.071382869779   108.36523982   171.66540929
 C      4   1   2     2.826721503028   109.15120082   194.00130834
 H     21   4   1     2.068954852341   110.50510788   199.04337910
 H     21   4   1     2.065376974438   107.89147969    80.65058764
 C      9   2   1     2.869532241495   107.31095441    40.15601205
 N     24   9   2     2.826475473650   107.23533778   307.27838450
 N      1   2   3     3.834284211276   179.86322264   142.63584071
 H     26   1   6     1.934217651590   105.80699621   175.66207928
 C     26   1   6     2.830036073125   108.93203304   290.28143603
 H     28  26   1     2.064776269054   107.57044294    79.27925458
 H     28  26   1     2.068598828497   110.44590719   198.09954586
 N      1   2   3     3.704383349623    88.92423662   185.14084126
 N     31   1   2     2.283558064752   130.12576572   142.20759942
 N     32  31   1     2.197458757621   175.87981986   179.79643208
 C     26   1   6     2.831270932676   115.63935708    58.83405275
 H     34  26   1     2.071292784109   108.37044423   179.31835331
 H     34  26   1     2.064330366882   107.19397279   296.40114767
 C     34  26   1     2.889194194465   111.51004570    58.00796820
 H     37  34  26     2.075675683064   110.44480249    50.96296926
 H     37  34  26     2.069094106220   107.76411362   166.89205763
 C     25  24   9     2.826270757810   113.37214500   175.40315599
 H     25  24   9     1.938785458420   106.81850639   293.25754584
 H     40  25  24     2.065749204383   108.32167271   301.88506961
 H     24   9   2     2.068862422554   111.49981533   186.25537510
 H     24   9   2     2.065461998110   111.17824975    64.94867248
 H     40  25  24     2.071117802052   108.35527372    59.04578757

---------------------
BASIS SET INFORMATION
---------------------
There are 4 groups of distinct atoms

 Group   1 Type Fe  : 14s9p5d1f contracted to 5s3p2d1f pattern {63311/531/41/1}
 Group   2 Type N   : 7s4p1d contracted to 3s2p1d pattern {511/31/1}
 Group   3 Type H   : 4s1p contracted to 2s1p pattern {31/1}
 Group   4 Type C   : 7s4p1d contracted to 3s2p1d pattern {511/31/1}

Atom   0Fe   basis set group =>   1
Atom   1N    basis set group =>   2
Atom   2H    basis set group =>   3
Atom   3N    basis set group =>   2
Atom   4H    basis set group =>   3
Atom   5N    basis set group =>   2
Atom   6N    basis set group =>   2
Atom   7N    basis set group =>   2
Atom   8C    basis set group =>   4
Atom   9H    basis set group =>   3
Atom  10H    basis set group =>   3
Atom  11C    basis set group =>   4
Atom  12H    basis set group =>   3
Atom  13H    basis set group =>   3
Atom  14C    basis set group =>   4
Atom  15H    basis set group =>   3
Atom  16H    basis set group =>   3
Atom  17C    basis set group =>   4
Atom  18H    basis set group =>   3
Atom  19H    basis set group =>   3
Atom  20C    basis set group =>   4
Atom  21H    basis set group =>   3
Atom  22H    basis set group =>   3
Atom  23C    basis set group =>   4
Atom  24N    basis set group =>   2
Atom  25N    basis set group =>   2
Atom  26H    basis set group =>   3
Atom  27C    basis set group =>   4
Atom  28H    basis set group =>   3
Atom  29H    basis set group =>   3
Atom  30N    basis set group =>   2
Atom  31N    basis set group =>   2
Atom  32N    basis set group =>   2
Atom  33C    basis set group =>   4
Atom  34H    basis set group =>   3
Atom  35H    basis set group =>   3
Atom  36C    basis set group =>   4
Atom  37H    basis set group =>   3
Atom  38H    basis set group =>   3
Atom  39C    basis set group =>   4
Atom  40H    basis set group =>   3
Atom  41H    basis set group =>   3
Atom  42H    basis set group =>   3
Atom  43H    basis set group =>   3
Atom  44H    basis set group =>   3
-------------------------------
AUXILIARY BASIS SET INFORMATION
-------------------------------
There are 4 groups of distinct atoms

 Group   1 Type Fe  : 19s5p5d3f3g contracted to 8s5p5d2f3g pattern {121111111/11111/11111/21/111}
 Group   2 Type N   : 12s5p4d2f1g contracted to 6s4p3d1f1g pattern {711111/2111/211/2/1}
 Group   3 Type H   : 5s2p1d contracted to 3s1p1d pattern {311/2/1}
 Group   4 Type C   : 12s5p4d2f1g contracted to 6s4p3d1f1g pattern {711111/2111/211/2/1}

Atom   0Fe   basis set group =>   1
Atom   1N    basis set group =>   2
Atom   2H    basis set group =>   3
Atom   3N    basis set group =>   2
Atom   4H    basis set group =>   3
Atom   5N    basis set group =>   2
Atom   6N    basis set group =>   2
Atom   7N    basis set group =>   2
Atom   8C    basis set group =>   4
Atom   9H    basis set group =>   3
Atom  10H    basis set group =>   3
Atom  11C    basis set group =>   4
Atom  12H    basis set group =>   3
Atom  13H    basis set group =>   3
Atom  14C    basis set group =>   4
Atom  15H    basis set group =>   3
Atom  16H    basis set group =>   3
Atom  17C    basis set group =>   4
Atom  18H    basis set group =>   3
Atom  19H    basis set group =>   3
Atom  20C    basis set group =>   4
Atom  21H    basis set group =>   3
Atom  22H    basis set group =>   3
Atom  23C    basis set group =>   4
Atom  24N    basis set group =>   2
Atom  25N    basis set group =>   2
Atom  26H    basis set group =>   3
Atom  27C    basis set group =>   4
Atom  28H    basis set group =>   3
Atom  29H    basis set group =>   3
Atom  30N    basis set group =>   2
Atom  31N    basis set group =>   2
Atom  32N    basis set group =>   2
Atom  33C    basis set group =>   4
Atom  34H    basis set group =>   3
Atom  35H    basis set group =>   3
Atom  36C    basis set group =>   4
Atom  37H    basis set group =>   3
Atom  38H    basis set group =>   3
Atom  39C    basis set group =>   4
Atom  40H    basis set group =>   3
Atom  41H    basis set group =>   3
Atom  42H    basis set group =>   3
Atom  43H    basis set group =>   3
Atom  44H    basis set group =>   3
------------------------------------------------------------------------------
                           ORCA GTO INTEGRAL CALCULATION
                           -- RI-GTO INTEGRALS CHOSEN --
------------------------------------------------------------------------------

                         BASIS SET STATISTICS AND STARTUP INFO

Gaussian basis set:
 # of primitive gaussian shells          ...  389
 # of primitive gaussian functions       ...  721
 # of contracted shells                  ...  203
 # of contracted basis functions         ...  431
 Highest angular momentum                ...    3
 Maximum contraction depth               ...    6
Auxiliary gaussian basis set:
 # of primitive gaussian shells          ...  707
 # of primitive gaussian functions       ... 1891
 # of contracted shells                  ...  443
 # of contracted aux-basis functions     ... 1333
 Highest angular momentum                ...    4
 Maximum contraction depth               ...   12
Ratio of auxiliary to basis functions    ...  3.09
Integral package used                  ... LIBINT
 One Electron integrals                  ... done
 Ordering auxiliary basis shells         ... done
 Integral threshhold             Thresh  ...  1.000e-10
 Primitive cut-off               TCut    ...  1.000e-11
 Pre-screening matrix                    ... done
 Shell pair data                         ... 
 Ordering of the shell pairs             ... done (   0.003 sec) 17486 of 20706 pairs
 Determination of significant pairs      ... done (   0.000 sec)
 Creation of shell pair data             ... done (   0.002 sec)
 Storage of shell pair data              ... done (   0.003 sec)
 Shell pair data done in (   0.009 sec)
 Computing two index integrals           ... done
 Cholesky decomposition of the V-matrix  ... done


Timings:
 Total evaluation time                   ...   0.383 sec (  0.006 min)
 One electron matrix time                ...   0.118 sec (  0.002 min) = 30.7%
 Schwartz matrix evaluation time         ...   0.171 sec (  0.003 min) = 44.6%
 Two index repulsion integral time       ...   0.033 sec (  0.001 min) =  8.6%
 Cholesky decomposition of V             ...   0.033 sec (  0.001 min) =  8.7%
 Three index repulsion integral time     ...   0.000 sec (  0.000 min) =  0.0%

-------------------------------------------------------------------------------
                                 ORCA SCF
-------------------------------------------------------------------------------

------------
SCF SETTINGS
------------
Hamiltonian:
 Density Functional     Method          .... DFT(GTOs)
 Exchange Functional    Exchange        .... B88
   X-Alpha parameter    XAlpha          ....  0.666667
   Becke's b parameter  XBeta           ....  0.004200
 Correlation Functional Correlation     .... P86
 LDA part of GGA corr.  LDAOpt          .... PW91-LDA
 Gradients option       PostSCFGGA      .... off
   Density functional embedding theory  .... OFF
 RI-approximation to the Coulomb term is turned on
   Number of auxiliary basis functions  .... 1333


General Settings:
 Integral files         IntName         .... moess
 Hartree-Fock type      HFTyp           .... UHF
 Total Charge           Charge          ....    1
 Multiplicity           Mult            ....    2
 Number of Electrons    NEL             ....  179
 Basis Dimension        Dim             ....  431
 Nuclear Repulsion      ENuc            ....   2554.1277645406 Eh

Convergence Acceleration:
 DIIS                   CNVDIIS         .... on
   Start iteration      DIISMaxIt       ....    12
   Startup error        DIISStart       ....  0.200000
   # of expansion vecs  DIISMaxEq       ....     5
   Bias factor          DIISBfac        ....   1.050
   Max. coefficient     DIISMaxC        ....  10.000
 Newton-Raphson         CNVNR           .... off
 SOSCF                  CNVSOSCF        .... off
 Level Shifting         CNVShift        .... on
   Level shift para.    LevelShift      ....    0.2500
   Turn off err/grad.   ShiftErr        ....    0.0010
 Zerner damping         CNVZerner       .... off
 Static damping         CNVDamp         .... on
   Fraction old density DampFac         ....    0.7000
   Max. Damping (<1)    DampMax         ....    0.9800
   Min. Damping (>=0)   DampMin         ....    0.0000
   Turn off err/grad.   DampErr         ....    0.1000
 Fernandez-Rico         CNVRico         .... off

SCF Procedure:
 Maximum # iterations   MaxIter         ....   125
 SCF integral mode      SCFMode         .... Direct
   Integral package                     .... LIBINT
 Reset frequency        DirectResetFreq ....    20
 Integral Threshold     Thresh          ....  1.000e-10 Eh
 Primitive CutOff       TCut            ....  1.000e-11 Eh

Convergence Tolerance:
 Convergence Check Mode ConvCheckMode   .... Total+1el-Energy
 Convergence forced     ConvForced      .... 0
 Energy Change          TolE            ....  1.000e-06 Eh
 1-El. energy change                    ....  1.000e-03 Eh
 DIIS Error             TolErr          ....  1.000e-06


Diagonalization of the overlap matrix:
Smallest eigenvalue                        ... 1.645e-03
Time for diagonalization                   ...    0.026 sec
Threshold for overlap eigenvalues          ... 1.000e-08
Number of eigenvalues below threshold      ... 0
Time for construction of square roots      ...    0.013 sec
Total time needed                          ...    0.039 sec

-------------------
DFT GRID GENERATION
-------------------

General Integration Accuracy     IntAcc      ...  4.340
Radial Grid Type                 RadialGrid  ... Gauss-Chebyshev
Angular Grid (max. acc.)         AngularGrid ... Lebedev-110
Angular grid pruning method      GridPruning ... 3 (G Style)
Weight generation scheme         WeightScheme... Becke
Basis function cutoff            BFCut       ...    1.0000e-10
Integration weight cutoff        WCut        ...    1.0000e-14
Grids for H and He will be reduced by one unit

# of grid points (after initial pruning)     ...  55548 (   0.0 sec)
# of grid points (after weights+screening)   ...  48544 (   0.5 sec)
nearest neighbour list constructed           ...    0.0 sec
Grid point re-assignment to atoms done       ...    0.0 sec
Grid point division into batches done        ...    0.0 sec
Reduced shell lists constructed in    0.6 sec

Total number of grid points                  ...    48544
Total number of batches                      ...      780
Average number of points per batch           ...       62
Average number of grid points per atom       ...     1079
Average number of shells per batch           ...   109.88 (54.13%)
Average number of basis functions per batch  ...   215.28 (49.95%)
Average number of large shells per batch     ...    70.58 (64.24%)
Average number of large basis fcns per batch ...   136.84 (63.56%)
Maximum spatial batch extension              ...  19.40, 19.84, 25.16 au
Average spatial batch extension              ...   3.04,  3.09,  3.14 au

Time for grid setup =    1.155 sec

------------------------------
INITIAL GUESS: MODEL POTENTIAL
------------------------------
Loading Hartree-Fock densities                     ... done
Calculating cut-offs                               ... done
Setting up the integral package                    ... done
Initializing the effective Hamiltonian             ... done
Starting the Coulomb interaction                   ... done (   1.3 sec)
Reading the grid                                   ... done
Mapping shells                                     ... done
Starting the XC term evaluation                    ... done (   1.2 sec)
  promolecular density results
     # of electrons  =    179.985297893
     EX              =   -178.829601168
     EC              =     -7.056914603
     EX+EC           =   -185.886515772
Transforming the Hamiltonian                       ... done (   0.0 sec)
Diagonalizing the Hamiltonian                      ... done (   0.0 sec)
Back transforming the eigenvectors                 ... done (   0.0 sec)
Now organizing SCF variables                       ... done
                      ------------------
                      INITIAL GUESS DONE (   3.8 sec)
                      ------------------
--------------
SCF ITERATIONS
--------------
ITER       Energy         Delta-E        Max-DP      RMS-DP      [F,P]     Damp
               ***  Starting incremental Fock matrix formation  ***
  0  -2205.5550964420   0.000000000000 0.05572777  0.00078967  0.1753277 0.7000
  1  -2205.7422692630  -0.187172820936 0.04327788  0.00053939  0.0695713 0.7000
                               ***Turning on DIIS***
  2  -2205.8099853076  -0.067716044663 0.07787803  0.00100178  0.0317252 0.0000
  3  -2205.8974132280  -0.087427920389 0.01407275  0.00018418  0.1664141 0.7000
  4  -2205.9242175368  -0.026804308819 0.00985661  0.00016451  0.1097538 0.7000
  5  -2205.9400652422  -0.015847705356 0.02716759  0.00036941  0.0641804 0.0000
  6  -2205.9553074538  -0.015242211644 0.00328234  0.00004684  0.0134284 0.0000
  7  -2205.9559364005  -0.000628946680 0.00308134  0.00003664  0.0056710 0.0000
  8  -2205.9561302062  -0.000193805723 0.00142671  0.00001637  0.0032931 0.0000
  9  -2205.9562182231  -0.000088016913 0.00122912  0.00001243  0.0026241 0.0000
 10  -2205.9562570463  -0.000038823139 0.00517499  0.00003545  0.0006347 0.0000
 11  -2205.9562749863  -0.000017940033 0.00031383  0.00000334  0.0034535 0.0000
 12  -2205.9562861431  -0.000011156824 0.00055475  0.00000480  0.0022736 0.0000
 13  -2205.9562952565  -0.000009113342 0.00130218  0.00001043  0.0009297 0.0000
 14  -2205.9563028867  -0.000007630246 0.00065751  0.00000433  0.0003670 0.0000
 15  -2205.9563043030  -0.000001416235 0.00096323  0.00000709  0.0005020 0.0000
 16  -2205.9563063927  -0.000002089728 0.00033629  0.00000295  0.0002284 0.0000
 17  -2205.9563060117   0.000000380951 0.00059356  0.00000405  0.0002949 0.0000
 18  -2205.9563065486  -0.000000536899 0.00012368  0.00000130  0.0002606 0.0000
 19  -2205.9563068194  -0.000000270737 0.00011592  0.00000088  0.0001620 0.0000
               *** Restarting incremental Fock matrix formation ***
                                   *** Resetting DIIS ***
 20  -2205.9563099080  -0.000003088622 0.00027523  0.00000269  0.0001215 0.0000
 21  -2205.9563061203   0.000003787648 0.00022324  0.00000222  0.0009590 0.0000
 22  -2205.9563097099  -0.000003589550 0.00004487  0.00000047  0.0000433 0.0000
 23  -2205.9563095307   0.000000179208 0.00007766  0.00000049  0.0000458 0.0000
                 **** Energy Check signals convergence ****

               *****************************************************
               *                     SUCCESS                       *
               *           SCF CONVERGED AFTER  24 CYCLES          *
               *****************************************************

Setting up the final grid:

General Integration Accuracy     IntAcc      ...  4.670
Radial Grid Type                 RadialGrid  ... Gauss-Chebyshev
Angular Grid (max. acc.)         AngularGrid ... Lebedev-302
Angular grid pruning method      GridPruning ... 3 (G Style)
Weight generation scheme         WeightScheme... Becke
Basis function cutoff            BFCut       ...    1.0000e-10
Integration weight cutoff        WCut        ...    1.0000e-14
Grids for H and He will be reduced by one unit

# of grid points (after initial pruning)     ... 215336 (   0.1 sec)
# of grid points (after weights+screening)   ... 183201 (   2.3 sec)
nearest neighbour list constructed           ...    0.0 sec
Grid point re-assignment to atoms done       ...    0.0 sec
Grid point division into batches done        ...    0.6 sec
Reduced shell lists constructed in    3.1 sec

Total number of grid points                  ...   183201
Total number of batches                      ...     2882
Average number of points per batch           ...       63
Average number of grid points per atom       ...     4071
Average number of shells per batch           ...   100.05 (49.29%)
Average number of basis functions per batch  ...   193.40 (44.87%)
Average number of large shells per batch     ...    62.49 (62.46%)
Average number of large basis fcns per batch ...   119.49 (61.78%)
Maximum spatial batch extension              ...  21.27, 20.29, 21.54 au
Average spatial batch extension              ...   2.03,  2.01,  2.03 au

Final grid set up in    5.6 sec
Final integration                            ... done (   7.2 sec)
Change in XC energy                          ...    -0.001061748
Integrated number of electrons               ...   179.000062195
Previous integrated no of electrons          ...   178.997906324

----------------
TOTAL SCF ENERGY
----------------

Total Energy       :        -2205.95737129 Eh          -60027.15179 eV

Components:
Nuclear Repulsion  :         2554.12776454 Eh           69501.34985 eV
Electronic Energy  :        -4760.08513583 Eh         -129528.50165 eV
One Electron Energy:        -8084.80103361 Eh         -219998.62064 eV
Two Electron Energy:         3324.71589778 Eh           90470.11899 eV

Virial components:
Potential Energy   :        -4398.71639969 Eh         -119695.15842 eV
Kinetic Energy     :         2192.75902840 Eh           59668.00663 eV
Virial Ratio       :            2.00601906


DFT components:
N(Alpha)           :       90.000031996614 electrons
N(Beta)            :       89.000030198155 electrons
N(Total)           :      179.000062194770 electrons
E(X)               :     -180.742065459558 Eh       
E(C)               :       -6.989981720190 Eh       
E(XC)              :     -187.732047179748 Eh       
DFET-embed. en.    :        0.000000000000 Eh       

---------------
SCF CONVERGENCE
---------------

  Last Energy change         ...   -1.0020e-08  Tolerance :   1.0000e-06
  Last MAX-Density change    ...    7.1216e-05  Tolerance :   1.0000e-05
  Last RMS-Density change    ...    3.8643e-07  Tolerance :   1.0000e-06
  Last DIIS Error            ...    3.5838e-05  Tolerance :   1.0000e-06

             **** THE GBW FILE WAS UPDATED (moess.gbw) ****
             **** DENSITY FILE WAS UPDATED (moess.scfp.tmp) ****
             **** ENERGY FILE WAS UPDATED (moess.en.tmp) ****
----------------------
UHF SPIN CONTAMINATION
----------------------

Warning: in a DFT calculation there is little theoretical justification to 
         calculate <S**2> as in Hartree-Fock theory. We will do it anyways
         but you should keep in mind that the values have only limited relevance

Expectation value of <S**2>     :     0.764269
Ideal value S*(S+1) for S=0.5   :     0.750000
Deviation                       :     0.014269

----------------
ORBITAL ENERGIES
----------------
                 SPIN UP ORBITALS
  NO   OCC          E(Eh)            E(eV) 
   0   1.0000    -254.953243     -6937.6304 
   1   1.0000     -29.713404      -808.5428 
   2   1.0000     -25.669832      -698.5116 
   3   1.0000     -25.668123      -698.4651 
   4   1.0000     -25.653156      -698.0579 
   5   1.0000     -14.264594      -388.1593 
   6   1.0000     -14.262671      -388.1070 
   7   1.0000     -14.202358      -386.4658 
   8   1.0000     -14.200532      -386.4161 
   9   1.0000     -14.196308      -386.3012 
  10   1.0000     -14.195281      -386.2732 
  11   1.0000     -14.157016      -385.2320 
  12   1.0000     -14.153931      -385.1481 
  13   1.0000     -14.148124      -384.9900 
  14   1.0000     -14.146736      -384.9522 
  15   1.0000     -10.089717      -274.5551 
  16   1.0000     -10.089618      -274.5525 
  17   1.0000     -10.089409      -274.5468 
  18   1.0000     -10.088895      -274.5328 
  19   1.0000     -10.084351      -274.4092 
  20   1.0000     -10.083868      -274.3960 
  21   1.0000     -10.083675      -274.3908 
  22   1.0000     -10.082518      -274.3593 
  23   1.0000     -10.057804      -273.6868 
  24   1.0000     -10.056882      -273.6617 
  25   1.0000      -3.411443       -92.8301 
  26   1.0000      -2.239943       -60.9519 
  27   1.0000      -2.235125       -60.8209 
  28   1.0000      -2.204965       -60.0001 
  29   1.0000      -1.127800       -30.6890 
  30   1.0000      -1.125582       -30.6286 
  31   1.0000      -1.011181       -27.5156 
  32   1.0000      -1.000929       -27.2367 
  33   1.0000      -0.984771       -26.7970 
  34   1.0000      -0.975998       -26.5583 
  35   1.0000      -0.974308       -26.5123 
  36   1.0000      -0.973964       -26.5029 
  37   1.0000      -0.867851       -23.6154 
  38   1.0000      -0.837278       -22.7835 
  39   1.0000      -0.824413       -22.4334 
  40   1.0000      -0.783379       -21.3168 
  41   1.0000      -0.748021       -20.3547 
  42   1.0000      -0.728179       -19.8148 
  43   1.0000      -0.708558       -19.2808 
  44   1.0000      -0.703061       -19.1313 
  45   1.0000      -0.686421       -18.6785 
  46   1.0000      -0.677020       -18.4227 
  47   1.0000      -0.622273       -16.9329 
  48   1.0000      -0.613196       -16.6859 
  49   1.0000      -0.603801       -16.4303 
  50   1.0000      -0.601805       -16.3760 
  51   1.0000      -0.595849       -16.2139 
  52   1.0000      -0.579903       -15.7800 
  53   1.0000      -0.579079       -15.7575 
  54   1.0000      -0.570797       -15.5322 
  55   1.0000      -0.562836       -15.3156 
  56   1.0000      -0.561318       -15.2742 
  57   1.0000      -0.554681       -15.0936 
  58   1.0000      -0.551513       -15.0074 
  59   1.0000      -0.550060       -14.9679 
  60   1.0000      -0.547630       -14.9018 
  61   1.0000      -0.542766       -14.7694 
  62   1.0000      -0.535065       -14.5599 
  63   1.0000      -0.527773       -14.3614 
  64   1.0000      -0.516302       -14.0493 
  65   1.0000      -0.515547       -14.0288 
  66   1.0000      -0.512276       -13.9397 
  67   1.0000      -0.492074       -13.3900 
  68   1.0000      -0.491509       -13.3746 
  69   1.0000      -0.477468       -12.9926 
  70   1.0000      -0.476235       -12.9590 
  71   1.0000      -0.473584       -12.8869 
  72   1.0000      -0.471718       -12.8361 
  73   1.0000      -0.461012       -12.5448 
  74   1.0000      -0.460470       -12.5300 
  75   1.0000      -0.457440       -12.4476 
  76   1.0000      -0.449374       -12.2281 
  77   1.0000      -0.447382       -12.1739 
  78   1.0000      -0.446141       -12.1401 
  79   1.0000      -0.432685       -11.7740 
  80   1.0000      -0.420923       -11.4539 
  81   1.0000      -0.404688       -11.0121 
  82   1.0000      -0.395881       -10.7725 
  83   1.0000      -0.376002       -10.2315 
  84   1.0000      -0.362830        -9.8731 
  85   1.0000      -0.335971        -9.1422 
  86   1.0000      -0.332794        -9.0558 
  87   1.0000      -0.314511        -8.5583 
  88   1.0000      -0.309587        -8.4243 
  89   1.0000      -0.302526        -8.2321 
  90   0.0000      -0.226905        -6.1744 
  91   0.0000      -0.213323        -5.8048 
  92   0.0000      -0.128402        -3.4940 
  93   0.0000      -0.124010        -3.3745 
  94   0.0000      -0.122219        -3.3258 
  95   0.0000      -0.116595        -3.1727 
  96   0.0000      -0.103331        -2.8118 
  97   0.0000      -0.098871        -2.6904 
  98   0.0000      -0.091757        -2.4968 
  99   0.0000      -0.080029        -2.1777 
 100   0.0000      -0.074036        -2.0146 
 101   0.0000      -0.068818        -1.8726 
 102   0.0000      -0.062980        -1.7138 
 103   0.0000      -0.051849        -1.4109 
 104   0.0000      -0.045229        -1.2307 
 105   0.0000      -0.044256        -1.2043 
 106   0.0000      -0.043609        -1.1866 
 107   0.0000      -0.036584        -0.9955 
 108   0.0000      -0.035160        -0.9568 
 109   0.0000      -0.028254        -0.7688 
 110   0.0000      -0.025553        -0.6953 
 111   0.0000      -0.023910        -0.6506 
 112   0.0000      -0.018079        -0.4919 
 113   0.0000      -0.014445        -0.3931 
 114   0.0000      -0.008350        -0.2272 
 115   0.0000      -0.005430        -0.1478 
 116   0.0000      -0.004197        -0.1142 
 117   0.0000       0.002641         0.0719 
 118   0.0000       0.006027         0.1640 
 119   0.0000       0.012784         0.3479 
 120   0.0000       0.019903         0.5416 
 121   0.0000       0.021316         0.5800 
 122   0.0000       0.024584         0.6690 
 123   0.0000       0.025437         0.6922 
 124   0.0000       0.027839         0.7575 
 125   0.0000       0.030510         0.8302 
 126   0.0000       0.039772         1.0822 
 127   0.0000       0.040061         1.0901 
 128   0.0000       0.043817         1.1923 
 129   0.0000       0.046075         1.2538 
 130   0.0000       0.060081         1.6349 
 131   0.0000       0.074114         2.0168 
 132   0.0000       0.083873         2.2823 
 133   0.0000       0.089893         2.4461 
 134   0.0000       0.103373         2.8129 
 135   0.0000       0.113242         3.0815 
 136   0.0000       0.115861         3.1527 
 137   0.0000       0.155263         4.2249 
 138   0.0000       0.181688         4.9440 
 139   0.0000       0.188788         5.1372 
 140   0.0000       0.222307         6.0493 
 141   0.0000       0.225308         6.1309 
 142   0.0000       0.239049         6.5048 
 143   0.0000       0.239539         6.5182 
 144   0.0000       0.242940         6.6107 
 145   0.0000       0.244968         6.6659 
 146   0.0000       0.255604         6.9553 
 147   0.0000       0.259044         7.0490 
 148   0.0000       0.295024         8.0280 
 149   0.0000       0.303069         8.2469 
 150   0.0000       0.309744         8.4286 
 151   0.0000       0.313117         8.5203 
 152   0.0000       0.317291         8.6339 
 153   0.0000       0.330402         8.9907 
 154   0.0000       0.339161         9.2290 
 155   0.0000       0.352453         9.5907 
 156   0.0000       0.356435         9.6991 
 157   0.0000       0.361790         9.8448 
 158   0.0000       0.364383         9.9154 
 159   0.0000       0.370132        10.0718 
 160   0.0000       0.385206        10.4820 
 161   0.0000       0.388530        10.5724 
 162   0.0000       0.396873        10.7995 
 163   0.0000       0.415149        11.2968 
 164   0.0000       0.419639        11.4190 
 165   0.0000       0.424973        11.5641 
 166   0.0000       0.431260        11.7352 
 167   0.0000       0.447792        12.1850 
 168   0.0000       0.450000        12.2451 
 169   0.0000       0.454996        12.3811 
 170   0.0000       0.458523        12.4770 
 171   0.0000       0.459207        12.4956 
 172   0.0000       0.464339        12.6353 
 173   0.0000       0.469401        12.7730 
 174   0.0000       0.472272        12.8512 
 175   0.0000       0.475736        12.9454 
 176   0.0000       0.478894        13.0314 
 177   0.0000       0.480799        13.0832 
 178   0.0000       0.481926        13.1139 
 179   0.0000       0.489491        13.3197 
 180   0.0000       0.491706        13.3800 
 181   0.0000       0.500630        13.6228 
 182   0.0000       0.507052        13.7976 
 183   0.0000       0.508900        13.8479 
 184   0.0000       0.510208        13.8835 
 185   0.0000       0.513241        13.9660 
 186   0.0000       0.515114        14.0170 
 187   0.0000       0.517680        14.0868 
 188   0.0000       0.522515        14.2184 
 189   0.0000       0.525802        14.3078 
 190   0.0000       0.530358        14.4318 
 191   0.0000       0.532202        14.4820 
 192   0.0000       0.540017        14.6946 
 193   0.0000       0.541852        14.7445 
 194   0.0000       0.547811        14.9067 
 195   0.0000       0.556872        15.1533 
 196   0.0000       0.559654        15.2290 
 197   0.0000       0.560969        15.2647 
 198   0.0000       0.579595        15.7716 
 199   0.0000       0.589784        16.0488 
 200   0.0000       0.614809        16.7298 
 201   0.0000       0.623195        16.9580 
 202   0.0000       0.650693        17.7063 
 203   0.0000       0.652033        17.7427 
 204   0.0000       0.657976        17.9044 
 205   0.0000       0.659247        17.9390 
 206   0.0000       0.664524        18.0826 
 207   0.0000       0.672378        18.2963 
 208   0.0000       0.685526        18.6541 
 209   0.0000       0.692865        18.8538 
 210   0.0000       0.707135        19.2421 
 211   0.0000       0.709802        19.3147 
 212   0.0000       0.722585        19.6625 
 213   0.0000       0.729141        19.8409 
 214   0.0000       0.739209        20.1149 
 215   0.0000       0.752461        20.4755 
 216   0.0000       0.764106        20.7924 
 217   0.0000       0.772331        21.0162 
 218   0.0000       0.788277        21.4501 
 219   0.0000       0.790534        21.5115 
 220   0.0000       0.812873        22.1194 
 221   0.0000       0.821929        22.3658 
 222   0.0000       0.829485        22.5714 
 223   0.0000       0.854155        23.2427 
 224   0.0000       0.858078        23.3495 
 225   0.0000       0.861650        23.4467 
 226   0.0000       0.871147        23.7051 
 227   0.0000       0.885959        24.1082 
 228   0.0000       0.894076        24.3291 
 229   0.0000       0.914480        24.8843 
 230   0.0000       0.919430        25.0190 
 231   0.0000       0.932260        25.3681 
 232   0.0000       0.952395        25.9160 
 233   0.0000       0.962120        26.1806 
 234   0.0000       0.970778        26.4162 
 235   0.0000       0.979312        26.6484 
 236   0.0000       0.983432        26.7605 
 237   0.0000       0.996041        27.1036 
 238   0.0000       1.001224        27.2447 
 239   0.0000       1.026543        27.9337 
 240   0.0000       1.051403        28.6101 
 241   0.0000       1.057328        28.7714 
 242   0.0000       1.071537        29.1580 
 243   0.0000       1.072569        29.1861 
 244   0.0000       1.085192        29.5296 
 245   0.0000       1.099411        29.9165 
 246   0.0000       1.102880        30.0109 
 247   0.0000       1.124125        30.5890 
 248   0.0000       1.131886        30.8002 
 249   0.0000       1.153145        31.3787 
 250   0.0000       1.157567        31.4990 
 251   0.0000       1.170324        31.8461 
 252   0.0000       1.188930        32.3524 
 253   0.0000       1.204497        32.7760 
 254   0.0000       1.210521        32.9400 
 255   0.0000       1.226480        33.3742 
 256   0.0000       1.242920        33.8216 
 257   0.0000       1.272318        34.6215 
 258   0.0000       1.288949        35.0741 
 259   0.0000       1.304546        35.4985 
 260   0.0000       1.315498        35.7965 
 261   0.0000       1.332809        36.2676 
 262   0.0000       1.351016        36.7630 
 263   0.0000       1.364959        37.1424 
 264   0.0000       1.372215        37.3399 
 265   0.0000       1.375810        37.4377 
 266   0.0000       1.394585        37.9486 
 267   0.0000       1.410870        38.3917 
 268   0.0000       1.414644        38.4944 
 269   0.0000       1.419242        38.6195 
 270   0.0000       1.441939        39.2372 
 271   0.0000       1.454322        39.5741 
 272   0.0000       1.466474        39.9048 
 273   0.0000       1.480127        40.2763 
 274   0.0000       1.496067        40.7101 
 275   0.0000       1.500770        40.8380 
 276   0.0000       1.508750        41.0552 
 277   0.0000       1.519784        41.3554 
 278   0.0000       1.527921        41.5768 
 279   0.0000       1.546135        42.0725 
 280   0.0000       1.548737        42.1433 
 281   0.0000       1.556587        42.3569 
 282   0.0000       1.561291        42.4849 
 283   0.0000       1.564190        42.5638 
 284   0.0000       1.567721        42.6599 
 285   0.0000       1.568375        42.6777 
 286   0.0000       1.568786        42.6888 
 287   0.0000       1.569920        42.7197 
 288   0.0000       1.579895        42.9911 
 289   0.0000       1.584978        43.1294 
 290   0.0000       1.593719        43.3673 
 291   0.0000       1.601506        43.5792 
 292   0.0000       1.617541        44.0155 
 293   0.0000       1.621853        44.1329 
 294   0.0000       1.624676        44.2097 
 295   0.0000       1.631705        44.4009 
 296   0.0000       1.634167        44.4679 
 297   0.0000       1.641562        44.6692 
 298   0.0000       1.650397        44.9096 
 299   0.0000       1.657353        45.0989 
 300   0.0000       1.665587        45.3229 
 301   0.0000       1.670331        45.4520 
 302   0.0000       1.674853        45.5751 
 303   0.0000       1.685898        45.8756 
 304   0.0000       1.691489        46.0278 
 305   0.0000       1.693831        46.0915 
 306   0.0000       1.709709        46.5236 
 307   0.0000       1.713411        46.6243 
 308   0.0000       1.716315        46.7033 
 309   0.0000       1.723743        46.9054 
 310   0.0000       1.729412        47.0597 
 311   0.0000       1.733829        47.1799 
 312   0.0000       1.735012        47.2121 
 313   0.0000       1.745244        47.4905 
 314   0.0000       1.751900        47.6716 
 315   0.0000       1.760024        47.8927 
 316   0.0000       1.765180        48.0330 
 317   0.0000       1.769954        48.1629 
 318   0.0000       1.782675        48.5091 
 319   0.0000       1.784232        48.5514 
 320   0.0000       1.792373        48.7730 
 321   0.0000       1.794605        48.8337 
 322   0.0000       1.810772        49.2736 
 323   0.0000       1.841190        50.1013 
 324   0.0000       1.844093        50.1803 
 325   0.0000       1.858621        50.5756 
 326   0.0000       1.864372        50.7321 
 327   0.0000       1.867025        50.8043 
 328   0.0000       1.874637        51.0115 
 329   0.0000       1.897460        51.6325 
 330   0.0000       1.903452        51.7956 
 331   0.0000       1.909090        51.9490 
 332   0.0000       1.922214        52.3061 
 333   0.0000       1.950537        53.0768 
 334   0.0000       1.954371        53.1811 
 335   0.0000       1.967123        53.5281 
 336   0.0000       1.990847        54.1737 
 337   0.0000       1.998857        54.3917 
 338   0.0000       2.005052        54.5602 
 339   0.0000       2.040424        55.5227 
 340   0.0000       2.044491        55.6334 
 341   0.0000       2.047823        55.7241 
 342   0.0000       2.062238        56.1163 
 343   0.0000       2.079603        56.5889 
 344   0.0000       2.084169        56.7131 
 345   0.0000       2.098115        57.0926 
 346   0.0000       2.115325        57.5609 
 347   0.0000       2.141637        58.2769 
 348   0.0000       2.145806        58.3903 
 349   0.0000       2.153095        58.5887 
 350   0.0000       2.162781        58.8522 
 351   0.0000       2.173995        59.1574 
 352   0.0000       2.176795        59.2336 
 353   0.0000       2.197877        59.8073 
 354   0.0000       2.209268        60.1172 
 355   0.0000       2.218586        60.3708 
 356   0.0000       2.224910        60.5429 
 357   0.0000       2.234953        60.8162 
 358   0.0000       2.239695        60.9452 
 359   0.0000       2.243253        61.0420 
 360   0.0000       2.245972        61.1160 
 361   0.0000       2.257669        61.4343 
 362   0.0000       2.262935        61.5776 
 363   0.0000       2.265290        61.6417 
 364   0.0000       2.276345        61.9425 
 365   0.0000       2.284121        62.1541 
 366   0.0000       2.290862        62.3375 
 367   0.0000       2.307799        62.7984 
 368   0.0000       2.313752        62.9604 
 369   0.0000       2.335780        63.5598 
 370   0.0000       2.337691        63.6118 
 371   0.0000       2.348156        63.8966 
 372   0.0000       2.382194        64.8228 
 373   0.0000       2.418514        65.8111 
 374   0.0000       2.423708        65.9524 
 375   0.0000       2.448796        66.6351 
 376   0.0000       2.464839        67.0717 
 377   0.0000       2.469101        67.1877 
 378   0.0000       2.489671        67.7474 
 379   0.0000       2.492610        67.8274 
 380   0.0000       2.511204        68.3333 
 381   0.0000       2.514691        68.4282 
 382   0.0000       2.527461        68.7757 
 383   0.0000       2.538665        69.0806 
 384   0.0000       2.540936        69.1424 
 385   0.0000       2.542058        69.1729 
 386   0.0000       2.557401        69.5904 
 387   0.0000       2.561192        69.6936 
 388   0.0000       2.567827        69.8741 
 389   0.0000       2.571338        69.9697 
 390   0.0000       2.613951        71.1292 
 391   0.0000       2.629194        71.5440 
 392   0.0000       2.675143        72.7943 
 393   0.0000       2.704495        73.5931 
 394   0.0000       2.712313        73.8058 
 395   0.0000       2.734221        74.4019 
 396   0.0000       2.741233        74.5927 
 397   0.0000       2.748193        74.7821 
 398   0.0000       2.755202        74.9729 
 399   0.0000       2.772331        75.4390 
 400   0.0000       2.794689        76.0474 
 401   0.0000       2.797236        76.1167 
 402   0.0000       2.801531        76.2335 
 403   0.0000       2.806880        76.3791 
 404   0.0000       2.812945        76.5441 
 405   0.0000       2.827976        76.9531 
 406   0.0000       2.832475        77.0756 
 407   0.0000       2.863183        77.9112 
 408   0.0000       2.871002        78.1239 
 409   0.0000       2.872525        78.1654 
 410   0.0000       2.879035        78.3425 
 411   0.0000       2.892983        78.7221 
 412   0.0000       2.910151        79.1892 
 413   0.0000       2.919237        79.4365 
 414   0.0000       3.087489        84.0149 
 415   0.0000       3.103012        84.4373 
 416   0.0000       3.114184        84.7413 
 417   0.0000       3.159530        85.9752 
 418   0.0000       3.166522        86.1654 
 419   0.0000       3.179581        86.5208 
 420   0.0000       3.185039        86.6693 
 421   0.0000       3.226922        87.8090 
 422   0.0000       3.676681       100.0476 
 423   0.0000       3.692191       100.4696 
 424   0.0000       3.867637       105.2437 
 425   0.0000       3.881448       105.6196 
 426   0.0000       3.900840       106.1473 
 427   0.0000       3.926882       106.8559 
 428   0.0000       3.994299       108.6904 
 429   0.0000       4.019030       109.3634 
 430   0.0000       4.022248       109.4509 

                 SPIN DOWN ORBITALS
  NO   OCC          E(Eh)            E(eV) 
   0   1.0000    -254.953101     -6937.6266 
   1   1.0000     -29.698418      -808.1350 
   2   1.0000     -25.655285      -698.1158 
   3   1.0000     -25.654417      -698.0922 
   4   1.0000     -25.647433      -697.9021 
   5   1.0000     -14.264856      -388.1665 
   6   1.0000     -14.262944      -388.1144 
   7   1.0000     -14.202673      -386.4744 
   8   1.0000     -14.200861      -386.4251 
   9   1.0000     -14.196646      -386.3104 
  10   1.0000     -14.195617      -386.2824 
  11   1.0000     -14.155429      -385.1888 
  12   1.0000     -14.152374      -385.1057 
  13   1.0000     -14.147387      -384.9700 
  14   1.0000     -14.145985      -384.9318 
  15   1.0000     -10.089732      -274.5556 
  16   1.0000     -10.089633      -274.5529 
  17   1.0000     -10.089427      -274.5473 
  18   1.0000     -10.088912      -274.5333 
  19   1.0000     -10.084336      -274.4087 
  20   1.0000     -10.083864      -274.3959 
  21   1.0000     -10.083669      -274.3906 
  22   1.0000     -10.082506      -274.3589 
  23   1.0000     -10.057810      -273.6869 
  24   1.0000     -10.056888      -273.6618 
  25   1.0000      -3.376601       -91.8820 
  26   1.0000      -2.195962       -59.7552 
  27   1.0000      -2.194202       -59.7073 
  28   1.0000      -2.187868       -59.5349 
  29   1.0000      -1.126632       -30.6572 
  30   1.0000      -1.124430       -30.5973 
  31   1.0000      -1.011429       -27.5224 
  32   1.0000      -1.001297       -27.2467 
  33   1.0000      -0.985101       -26.8060 
  34   1.0000      -0.974375       -26.5141 
  35   1.0000      -0.973913       -26.5015 
  36   1.0000      -0.972241       -26.4560 
  37   1.0000      -0.867892       -23.6165 
  38   1.0000      -0.837370       -22.7860 
  39   1.0000      -0.824509       -22.4360 
  40   1.0000      -0.783460       -21.3190 
  41   1.0000      -0.748094       -20.3567 
  42   1.0000      -0.728325       -19.8187 
  43   1.0000      -0.708616       -19.2824 
  44   1.0000      -0.703100       -19.1323 
  45   1.0000      -0.686315       -18.6756 
  46   1.0000      -0.677072       -18.4241 
  47   1.0000      -0.622086       -16.9278 
  48   1.0000      -0.613383       -16.6910 
  49   1.0000      -0.603610       -16.4251 
  50   1.0000      -0.601883       -16.3781 
  51   1.0000      -0.595262       -16.1979 
  52   1.0000      -0.579465       -15.7680 
  53   1.0000      -0.578943       -15.7538 
  54   1.0000      -0.570583       -15.5264 
  55   1.0000      -0.562294       -15.3008 
  56   1.0000      -0.560705       -15.2576 
  57   1.0000      -0.554202       -15.0806 
  58   1.0000      -0.550055       -14.9678 
  59   1.0000      -0.549198       -14.9444 
  60   1.0000      -0.546292       -14.8654 
  61   1.0000      -0.542086       -14.7509 
  62   1.0000      -0.535083       -14.5603 
  63   1.0000      -0.527990       -14.3673 
  64   1.0000      -0.515889       -14.0381 
  65   1.0000      -0.515167       -14.0184 
  66   1.0000      -0.512280       -13.9398 
  67   1.0000      -0.492011       -13.3883 
  68   1.0000      -0.491385       -13.3713 
  69   1.0000      -0.476483       -12.9658 
  70   1.0000      -0.475822       -12.9478 
  71   1.0000      -0.471625       -12.8336 
  72   1.0000      -0.469702       -12.7812 
  73   1.0000      -0.461047       -12.5457 
  74   1.0000      -0.460027       -12.5180 
  75   1.0000      -0.456965       -12.4346 
  76   1.0000      -0.449078       -12.2200 
  77   1.0000      -0.447353       -12.1731 
  78   1.0000      -0.446161       -12.1407 
  79   1.0000      -0.431389       -11.7387 
  80   1.0000      -0.416849       -11.3430 
  81   1.0000      -0.404828       -11.0159 
  82   1.0000      -0.396556       -10.7908 
  83   1.0000      -0.359504        -9.7826 
  84   1.0000      -0.344660        -9.3787 
  85   1.0000      -0.334995        -9.1157 
  86   1.0000      -0.326148        -8.8750 
  87   1.0000      -0.298021        -8.1096 
  88   1.0000      -0.287342        -7.8190 
  89   0.0000      -0.262944        -7.1551 
  90   0.0000      -0.214904        -5.8478 
  91   0.0000      -0.196840        -5.3563 
  92   0.0000      -0.127526        -3.4702 
  93   0.0000      -0.122837        -3.3426 
  94   0.0000      -0.119037        -3.2392 
  95   0.0000      -0.110723        -3.0129 
  96   0.0000      -0.101631        -2.7655 
  97   0.0000      -0.098106        -2.6696 
  98   0.0000      -0.091105        -2.4791 
  99   0.0000      -0.079598        -2.1660 
 100   0.0000      -0.073792        -2.0080 
 101   0.0000      -0.068653        -1.8681 
 102   0.0000      -0.062167        -1.6916 
 103   0.0000      -0.051645        -1.4053 
 104   0.0000      -0.044995        -1.2244 
 105   0.0000      -0.044345        -1.2067 
 106   0.0000      -0.043657        -1.1880 
 107   0.0000      -0.036536        -0.9942 
 108   0.0000      -0.034937        -0.9507 
 109   0.0000      -0.028159        -0.7662 
 110   0.0000      -0.025546        -0.6951 
 111   0.0000      -0.023831        -0.6485 
 112   0.0000      -0.017987        -0.4894 
 113   0.0000      -0.014409        -0.3921 
 114   0.0000      -0.008243        -0.2243 
 115   0.0000      -0.005423        -0.1476 
 116   0.0000      -0.004203        -0.1144 
 117   0.0000       0.002510         0.0683 
 118   0.0000       0.006154         0.1675 
 119   0.0000       0.012784         0.3479 
 120   0.0000       0.019911         0.5418 
 121   0.0000       0.021316         0.5801 
 122   0.0000       0.024580         0.6689 
 123   0.0000       0.025634         0.6975 
 124   0.0000       0.027871         0.7584 
 125   0.0000       0.030643         0.8338 
 126   0.0000       0.039680         1.0798 
 127   0.0000       0.040003         1.0885 
 128   0.0000       0.044174         1.2020 
 129   0.0000       0.046243         1.2583 
 130   0.0000       0.060168         1.6373 
 131   0.0000       0.074554         2.0287 
 132   0.0000       0.084504         2.2995 
 133   0.0000       0.090317         2.4576 
 134   0.0000       0.103728         2.8226 
 135   0.0000       0.114784         3.1234 
 136   0.0000       0.116561         3.1718 
 137   0.0000       0.157161         4.2766 
 138   0.0000       0.185390         5.0447 
 139   0.0000       0.192541         5.2393 
 140   0.0000       0.222701         6.0600 
 141   0.0000       0.226000         6.1498 
 142   0.0000       0.239162         6.5079 
 143   0.0000       0.240007         6.5309 
 144   0.0000       0.243244         6.6190 
 145   0.0000       0.245320         6.6755 
 146   0.0000       0.256793         6.9877 
 147   0.0000       0.260825         7.0974 
 148   0.0000       0.295287         8.0352 
 149   0.0000       0.303803         8.2669 
 150   0.0000       0.309992         8.4353 
 151   0.0000       0.314820         8.5667 
 152   0.0000       0.317295         8.6340 
 153   0.0000       0.331460         9.0195 
 154   0.0000       0.340079         9.2540 
 155   0.0000       0.353192         9.6108 
 156   0.0000       0.356513         9.7012 
 157   0.0000       0.362951         9.8764 
 158   0.0000       0.365320         9.9408 
 159   0.0000       0.370340        10.0775 
 160   0.0000       0.385931        10.5017 
 161   0.0000       0.388656        10.5759 
 162   0.0000       0.396830        10.7983 
 163   0.0000       0.415325        11.3016 
 164   0.0000       0.419917        11.4265 
 165   0.0000       0.425669        11.5831 
 166   0.0000       0.431231        11.7344 
 167   0.0000       0.448570        12.2062 
 168   0.0000       0.450854        12.2684 
 169   0.0000       0.455450        12.3934 
 170   0.0000       0.458928        12.4881 
 171   0.0000       0.459621        12.5069 
 172   0.0000       0.465005        12.6534 
 173   0.0000       0.470219        12.7953 
 174   0.0000       0.472642        12.8613 
 175   0.0000       0.476028        12.9534 
 176   0.0000       0.478988        13.0339 
 177   0.0000       0.480933        13.0869 
 178   0.0000       0.482231        13.1222 
 179   0.0000       0.489836        13.3291 
 180   0.0000       0.491878        13.3847 
 181   0.0000       0.501089        13.6353 
 182   0.0000       0.507216        13.8021 
 183   0.0000       0.508892        13.8477 
 184   0.0000       0.510546        13.8927 
 185   0.0000       0.513637        13.9768 
 186   0.0000       0.515464        14.0265 
 187   0.0000       0.518144        14.0994 
 188   0.0000       0.525245        14.2926 
 189   0.0000       0.526166        14.3177 
 190   0.0000       0.530818        14.4443 
 191   0.0000       0.532587        14.4924 
 192   0.0000       0.540281        14.7018 
 193   0.0000       0.542333        14.7576 
 194   0.0000       0.549238        14.9455 
 195   0.0000       0.557909        15.1815 
 196   0.0000       0.559813        15.2333 
 197   0.0000       0.561546        15.2804 
 198   0.0000       0.581131        15.8134 
 199   0.0000       0.591121        16.0852 
 200   0.0000       0.616980        16.7889 
 201   0.0000       0.623989        16.9796 
 202   0.0000       0.651558        17.7298 
 203   0.0000       0.653765        17.7899 
 204   0.0000       0.658667        17.9233 
 205   0.0000       0.659947        17.9581 
 206   0.0000       0.666103        18.1256 
 207   0.0000       0.674517        18.3545 
 208   0.0000       0.686888        18.6912 
 209   0.0000       0.694275        18.8922 
 210   0.0000       0.708745        19.2859 
 211   0.0000       0.710108        19.3230 
 212   0.0000       0.723798        19.6956 
 213   0.0000       0.730574        19.8799 
 214   0.0000       0.740557        20.1516 
 215   0.0000       0.753740        20.5103 
 216   0.0000       0.764551        20.8045 
 217   0.0000       0.773262        21.0415 
 218   0.0000       0.789012        21.4701 
 219   0.0000       0.791597        21.5404 
 220   0.0000       0.813623        22.1398 
 221   0.0000       0.822881        22.3917 
 222   0.0000       0.829809        22.5802 
 223   0.0000       0.854848        23.2616 
 224   0.0000       0.858951        23.3733 
 225   0.0000       0.862499        23.4698 
 226   0.0000       0.872138        23.7321 
 227   0.0000       0.886722        24.1289 
 228   0.0000       0.895054        24.3557 
 229   0.0000       0.916778        24.9468 
 230   0.0000       0.921109        25.0646 
 231   0.0000       0.937685        25.5157 
 232   0.0000       0.952996        25.9323 
 233   0.0000       0.967297        26.3215 
 234   0.0000       0.971346        26.4317 
 235   0.0000       0.980012        26.6675 
 236   0.0000       0.984985        26.8028 
 237   0.0000       0.996419        27.1140 
 238   0.0000       1.002878        27.2897 
 239   0.0000       1.027448        27.9583 
 240   0.0000       1.054698        28.6998 
 241   0.0000       1.058125        28.7931 
 242   0.0000       1.071567        29.1588 
 243   0.0000       1.072805        29.1925 
 244   0.0000       1.085757        29.5449 
 245   0.0000       1.102319        29.9956 
 246   0.0000       1.105341        30.0779 
 247   0.0000       1.124225        30.5917 
 248   0.0000       1.132700        30.8223 
 249   0.0000       1.154970        31.4283 
 250   0.0000       1.158668        31.5290 
 251   0.0000       1.172639        31.9091 
 252   0.0000       1.189265        32.3615 
 253   0.0000       1.204736        32.7825 
 254   0.0000       1.211442        32.9650 
 255   0.0000       1.226856        33.3844 
 256   0.0000       1.243213        33.8295 
 257   0.0000       1.272738        34.6329 
 258   0.0000       1.289326        35.0843 
 259   0.0000       1.304850        35.5068 
 260   0.0000       1.316186        35.8152 
 261   0.0000       1.333026        36.2735 
 262   0.0000       1.351146        36.7666 
 263   0.0000       1.365245        37.1502 
 264   0.0000       1.374366        37.3984 
 265   0.0000       1.376196        37.4482 
 266   0.0000       1.396076        37.9891 
 267   0.0000       1.411754        38.4158 
 268   0.0000       1.415675        38.5225 
 269   0.0000       1.419936        38.6384 
 270   0.0000       1.442355        39.2485 
 271   0.0000       1.454702        39.5845 
 272   0.0000       1.467588        39.9351 
 273   0.0000       1.480882        40.2969 
 274   0.0000       1.496912        40.7330 
 275   0.0000       1.503289        40.9066 
 276   0.0000       1.509154        41.0662 
 277   0.0000       1.520244        41.3680 
 278   0.0000       1.528739        41.5991 
 279   0.0000       1.546167        42.0733 
 280   0.0000       1.548837        42.1460 
 281   0.0000       1.557022        42.3687 
 282   0.0000       1.561790        42.4985 
 283   0.0000       1.564292        42.5666 
 284   0.0000       1.567886        42.6644 
 285   0.0000       1.568384        42.6779 
 286   0.0000       1.568804        42.6893 
 287   0.0000       1.569990        42.7216 
 288   0.0000       1.579975        42.9933 
 289   0.0000       1.585288        43.1379 
 290   0.0000       1.593709        43.3670 
 291   0.0000       1.601532        43.5799 
 292   0.0000       1.617732        44.0207 
 293   0.0000       1.622226        44.1430 
 294   0.0000       1.625224        44.2246 
 295   0.0000       1.631964        44.4080 
 296   0.0000       1.634632        44.4806 
 297   0.0000       1.641670        44.6721 
 298   0.0000       1.650724        44.9185 
 299   0.0000       1.657659        45.1072 
 300   0.0000       1.665883        45.3310 
 301   0.0000       1.670494        45.4565 
 302   0.0000       1.675555        45.5942 
 303   0.0000       1.686093        45.8809 
 304   0.0000       1.691721        46.0341 
 305   0.0000       1.693946        46.0946 
 306   0.0000       1.709797        46.5259 
 307   0.0000       1.714117        46.6435 
 308   0.0000       1.716436        46.7066 
 309   0.0000       1.724439        46.9244 
 310   0.0000       1.729557        47.0636 
 311   0.0000       1.733861        47.1807 
 312   0.0000       1.735101        47.2145 
 313   0.0000       1.745719        47.5034 
 314   0.0000       1.752485        47.6875 
 315   0.0000       1.760101        47.8948 
 316   0.0000       1.765537        48.0427 
 317   0.0000       1.771171        48.1960 
 318   0.0000       1.783072        48.5198 
 319   0.0000       1.784279        48.5527 
 320   0.0000       1.792652        48.7805 
 321   0.0000       1.794778        48.8384 
 322   0.0000       1.811732        49.2997 
 323   0.0000       1.841765        50.1170 
 324   0.0000       1.844503        50.1915 
 325   0.0000       1.858770        50.5797 
 326   0.0000       1.864540        50.7367 
 327   0.0000       1.867175        50.8084 
 328   0.0000       1.874971        51.0206 
 329   0.0000       1.897688        51.6387 
 330   0.0000       1.903820        51.8056 
 331   0.0000       1.909571        51.9621 
 332   0.0000       1.922476        52.3132 
 333   0.0000       1.950922        53.0873 
 334   0.0000       1.954472        53.1839 
 335   0.0000       1.968414        53.5633 
 336   0.0000       1.991425        54.1894 
 337   0.0000       2.003192        54.5096 
 338   0.0000       2.006205        54.5916 
 339   0.0000       2.042322        55.5744 
 340   0.0000       2.044457        55.6325 
 341   0.0000       2.049234        55.7625 
 342   0.0000       2.063267        56.1443 
 343   0.0000       2.080907        56.6244 
 344   0.0000       2.086508        56.7768 
 345   0.0000       2.100521        57.1581 
 346   0.0000       2.117273        57.6139 
 347   0.0000       2.142169        58.2914 
 348   0.0000       2.146205        58.4012 
 349   0.0000       2.153395        58.5968 
 350   0.0000       2.163494        58.8717 
 351   0.0000       2.174050        59.1589 
 352   0.0000       2.176787        59.2334 
 353   0.0000       2.200944        59.8907 
 354   0.0000       2.211644        60.1819 
 355   0.0000       2.220179        60.4141 
 356   0.0000       2.225833        60.5680 
 357   0.0000       2.235725        60.8372 
 358   0.0000       2.240518        60.9676 
 359   0.0000       2.245735        61.1096 
 360   0.0000       2.247177        61.1488 
 361   0.0000       2.258181        61.4482 
 362   0.0000       2.263064        61.5811 
 363   0.0000       2.265837        61.6566 
 364   0.0000       2.277120        61.9636 
 365   0.0000       2.285385        62.1885 
 366   0.0000       2.292213        62.3743 
 367   0.0000       2.307888        62.8008 
 368   0.0000       2.314484        62.9803 
 369   0.0000       2.336097        63.5684 
 370   0.0000       2.337997        63.6201 
 371   0.0000       2.348103        63.8951 
 372   0.0000       2.382176        64.8223 
 373   0.0000       2.418930        65.8224 
 374   0.0000       2.423416        65.9445 
 375   0.0000       2.448586        66.6294 
 376   0.0000       2.465585        67.0920 
 377   0.0000       2.469139        67.1887 
 378   0.0000       2.489828        67.7517 
 379   0.0000       2.492913        67.8356 
 380   0.0000       2.511009        68.3280 
 381   0.0000       2.515980        68.4633 
 382   0.0000       2.527900        68.7877 
 383   0.0000       2.538511        69.0764 
 384   0.0000       2.540910        69.1417 
 385   0.0000       2.542135        69.1750 
 386   0.0000       2.557348        69.5890 
 387   0.0000       2.561036        69.6893 
 388   0.0000       2.569341        69.9153 
 389   0.0000       2.571523        69.9747 
 390   0.0000       2.614332        71.1396 
 391   0.0000       2.629199        71.5442 
 392   0.0000       2.675104        72.7933 
 393   0.0000       2.704555        73.5947 
 394   0.0000       2.712257        73.8043 
 395   0.0000       2.735467        74.4358 
 396   0.0000       2.741215        74.5922 
 397   0.0000       2.748157        74.7812 
 398   0.0000       2.755302        74.9756 
 399   0.0000       2.772488        75.4432 
 400   0.0000       2.794830        76.0512 
 401   0.0000       2.797156        76.1145 
 402   0.0000       2.801810        76.2411 
 403   0.0000       2.807052        76.3838 
 404   0.0000       2.814176        76.5776 
 405   0.0000       2.828703        76.9729 
 406   0.0000       2.832424        77.0742 
 407   0.0000       2.863038        77.9072 
 408   0.0000       2.870987        78.1235 
 409   0.0000       2.872393        78.1618 
 410   0.0000       2.878963        78.3406 
 411   0.0000       2.892958        78.7214 
 412   0.0000       2.909871        79.1816 
 413   0.0000       2.918925        79.4280 
 414   0.0000       3.089070        84.0579 
 415   0.0000       3.104379        84.4745 
 416   0.0000       3.117365        84.8278 
 417   0.0000       3.159628        85.9778 
 418   0.0000       3.167419        86.1899 
 419   0.0000       3.179590        86.5210 
 420   0.0000       3.184906        86.6657 
 421   0.0000       3.227695        87.8300 
 422   0.0000       3.677578       100.0720 
 423   0.0000       3.692856       100.4877 
 424   0.0000       3.910053       106.3979 
 425   0.0000       3.918766       106.6350 
 426   0.0000       3.944382       107.3321 
 427   0.0000       3.949791       107.4793 
 428   0.0000       4.022016       109.4446 
 429   0.0000       4.029605       109.6511 
 430   0.0000       4.044586       110.0588 

                    ********************************
                    * MULLIKEN POPULATION ANALYSIS *
                    ********************************

--------------------------------------------
MULLIKEN ATOMIC CHARGES AND SPIN POPULATIONS
--------------------------------------------
   0 Fe:    0.219100    0.891697
   1 N :   -0.260043   -0.020125
   2 H :    0.164443    0.003049
   3 N :   -0.248698   -0.019849
   4 H :    0.165480    0.002092
   5 N :   -0.370734    0.020743
   6 N :    0.308354   -0.011634
   7 N :   -0.254284    0.085385
   8 C :    0.079502   -0.000499
   9 H :    0.069384   -0.000110
  10 H :    0.071817   -0.001175
  11 C :    0.079406   -0.000000
  12 H :    0.057418   -0.001016
  13 H :    0.062391    0.000527
  14 C :   -0.029586   -0.000419
  15 H :    0.048841    0.000429
  16 H :    0.069207    0.000043
  17 C :    0.068682   -0.000005
  18 H :    0.060226   -0.000038
  19 H :    0.058504   -0.001077
  20 C :    0.060994   -0.000890
  21 H :    0.069400   -0.001271
  22 H :    0.064109   -0.000073
  23 C :    0.061645   -0.000867
  24 N :   -0.247477   -0.019903
  25 N :   -0.266377   -0.019316
  26 H :    0.165902    0.001445
  27 C :    0.080964   -0.000490
  28 H :    0.068053   -0.000154
  29 H :    0.072546   -0.001166
  30 N :   -0.361359    0.019361
  31 N :    0.302350   -0.010679
  32 N :   -0.255962    0.086725
  33 C :    0.072778    0.000184
  34 H :    0.059126   -0.000940
  35 H :    0.062143    0.000250
  36 C :   -0.026976   -0.000395
  37 H :    0.049588    0.000312
  38 H :    0.070676    0.000041
  39 C :    0.061831   -0.000017
  40 H :    0.164287    0.002211
  41 H :    0.060064    0.000340
  42 H :    0.069567   -0.001253
  43 H :    0.063793   -0.000396
  44 H :    0.058925   -0.001071
Sum of atomic charges         :    1.0000000
Sum of atomic spin populations:    1.0000000

-----------------------------------------------------
MULLIKEN REDUCED ORBITAL CHARGES AND SPIN POPULATIONS
-----------------------------------------------------
CHARGE
  0 Fes       :     6.561248  s :     6.561248
      pz      :     4.303094  p :    12.778383
      px      :     4.245660
      py      :     4.229628
      dz2     :     1.594959  d :     6.439607
      dxz     :     1.409914
      dyz     :     0.758450
      dx2y2   :     0.877257
      dxy     :     1.799028
      f0      :     0.000149  f :     0.001662
      f+1     :     0.000181
      f-1     :     0.000403
      f+2     :     0.000428
      f-2     :     0.000138
      f+3     :     0.000249
      f-3     :     0.000113
  1 N s       :     3.480596  s :     3.480596
      pz      :     1.145823  p :     3.755867
      px      :     1.451886
      py      :     1.158158
      dz2     :     0.003777  d :     0.023580
      dxz     :     0.004925
      dyz     :     0.006006
      dx2y2   :     0.002979
      dxy     :     0.005892
  2 H s       :     0.794489  s :     0.794489
      pz      :     0.017808  p :     0.041068
      px      :     0.012202
      py      :     0.011058
  3 N s       :     3.472394  s :     3.472394
      pz      :     1.340348  p :     3.753010
      px      :     1.144631
      py      :     1.268031
      dz2     :     0.004580  d :     0.023295
      dxz     :     0.004502
      dyz     :     0.003361
      dx2y2   :     0.004790
      dxy     :     0.006063
  4 H s       :     0.792794  s :     0.792794
      pz      :     0.018364  p :     0.041726
      px      :     0.009078
      py      :     0.014284
  5 N s       :     3.675771  s :     3.675771
      pz      :     1.321787  p :     3.663239
      px      :     1.300469
      py      :     1.040983
      dz2     :     0.004500  d :     0.031724
      dxz     :     0.002021
      dyz     :     0.006505
      dx2y2   :     0.009098
      dxy     :     0.009600
  6 N s       :     3.296736  s :     3.296736
      pz      :     1.242300  p :     3.322300
      px      :     1.181587
      py      :     0.898413
      dz2     :     0.004718  d :     0.072610
      dxz     :     0.005495
      dyz     :     0.022616
      dx2y2   :     0.021576
      dxy     :     0.018204
  7 N s       :     3.966766  s :     3.966766
      pz      :     1.097679  p :     3.247925
[...]
      px      :    -0.000036
      py      :    -0.000260
  5 N s       :    -0.000047  s :    -0.000047
      pz      :    -0.006715  p :     0.030125
      px      :     0.029583
      py      :     0.007257
      dz2     :     0.000005  d :     0.000710
      dxz     :     0.000211
      dyz     :     0.000042
      dx2y2   :     0.000463
      dxy     :    -0.000011
  6 N s       :    -0.000906  s :    -0.000906
      pz      :    -0.001837  p :    -0.008516
      px      :    -0.004529
      py      :    -0.002149
      dz2     :     0.000053  d :     0.004554
      dxz     :     0.000079
      dyz     :    -0.000523
      dx2y2   :     0.003074
      dxy     :     0.001871
  7 N s       :     0.001031  s :     0.001031
      pz      :    -0.002938  p :     0.076959
      px      :     0.065020
      py      :     0.014877
      dz2     :    -0.000026  d :    -0.000213
      dxz     :    -0.000021
      dyz     :    -0.000021
      dx2y2   :    -0.000093
      dxy     :    -0.000051
  8 C s       :    -0.000232  s :    -0.000232
      pz      :    -0.000110  p :    -0.000342
      px      :    -0.000100
      py      :    -0.000131
      dz2     :    -0.000015  d :    -0.000266
      dxz     :    -0.000096
      dyz     :    -0.000010
      dx2y2   :    -0.000065
      dxy     :    -0.000080
  9 H s       :    -0.000074  s :    -0.000074
      pz      :    -0.000019  p :    -0.000029
      px      :    -0.000009
      py      :    -0.000001
 10 H s       :    -0.000793  s :    -0.000793
      pz      :    -0.000039  p :    -0.000057
      px      :     0.000000
      py      :    -0.000018
 11 C s       :    -0.000096  s :    -0.000096
      pz      :    -0.000019  p :     0.000510
      px      :    -0.000250
      py      :     0.000778
      dz2     :    -0.000021  d :    -0.000206
      dxz     :    -0.000016
      dyz     :    -0.000009
      dx2y2   :    -0.000100
      dxy     :    -0.000059
 12 H s       :    -0.000755  s :    -0.000755
      pz      :    -0.000014  p :     0.000001
      px      :     0.000000
      py      :     0.000015
 13 H s       :     0.000015  s :     0.000015
      pz      :     0.000030  p :    -0.000003
      px      :    -0.000033
      py      :    -0.000000
 14 C s       :     0.000019  s :     0.000019
      pz      :    -0.000101  p :    -0.000322
      px      :    -0.000146
      py      :    -0.000075
      dz2     :     0.000012  d :     0.000005
      dxz     :     0.000001
      dyz     :    -0.000002
      dx2y2   :    -0.000008
      dxy     :     0.000003
 15 H s       :     0.000177  s :     0.000177
      pz      :     0.000008  p :    -0.000001
      px      :    -0.000007
      py      :    -0.000002
 16 H s       :     0.000053  s :     0.000053
      pz      :    -0.000001  p :    -0.000005
      px      :    -0.000002
      py      :    -0.000002
 17 C s       :    -0.000061  s :    -0.000061
      pz      :    -0.000034  p :     0.000199
      px      :     0.000131
      py      :     0.000102
      dz2     :    -0.000006  d :    -0.000223
      dxz     :    -0.000026
      dyz     :    -0.000124
      dx2y2   :    -0.000057
      dxy     :    -0.000010
 18 H s       :    -0.000141  s :    -0.000141
      pz      :    -0.000013  p :    -0.000010
      px      :     0.000004
      py      :    -0.000001
 19 H s       :    -0.000826  s :    -0.000826
      pz      :     0.000000  p :     0.000004
      px      :    -0.000002
      py      :     0.000005
 20 C s       :    -0.000220  s :    -0.000220
      pz      :    -0.000113  p :    -0.000376
      px      :    -0.000165
      py      :    -0.000098
      dz2     :    -0.000045  d :    -0.000274
      dxz     :    -0.000079
      dyz     :    -0.000057
      dx2y2   :    -0.000031
      dxy     :    -0.000061
 21 H s       :    -0.000843  s :    -0.000843
      pz      :    -0.000006  p :    -0.000053
      px      :    -0.000043
      py      :    -0.000005
 22 H s       :    -0.000060  s :    -0.000060
      pz      :    -0.000013  p :    -0.000044
      px      :    -0.000020
      py      :    -0.000010
 23 C s       :    -0.000239  s :    -0.000239
      pz      :    -0.000106  p :    -0.000381
      px      :    -0.000181
      py      :    -0.000094
      dz2     :    -0.000040  d :    -0.000280
      dxz     :    -0.000081
      dyz     :    -0.000062
      dx2y2   :    -0.000031
      dxy     :    -0.000066
 24 N s       :    -0.001565  s :    -0.001565
      pz      :    -0.007233  p :    -0.012393
      px      :    -0.000460
      py      :    -0.004700
      dz2     :     0.000101  d :     0.000108
      dxz     :    -0.000014
      dyz     :     0.000059
      dx2y2   :     0.000011
      dxy     :    -0.000049
 25 N s       :    -0.001745  s :    -0.001745
      pz      :    -0.000743  p :    -0.011313
      px      :    -0.010153
      py      :    -0.000417
      dz2     :     0.000013  d :     0.000232
      dxz     :     0.000094
      dyz     :     0.000007
      dx2y2   :     0.000040
      dxy     :     0.000079
 26 H s       :     0.001098  s :     0.001098
      pz      :    -0.000060  p :    -0.000423
      px      :    -0.000349
      py      :    -0.000013
 27 C s       :    -0.000266  s :    -0.000266
      pz      :    -0.000058  p :    -0.000310
      px      :    -0.000108
      py      :    -0.000144
      dz2     :    -0.000008  d :    -0.000257
      dxz     :    -0.000096
      dyz     :    -0.000012
      dx2y2   :    -0.000062
      dxy     :    -0.000079
 28 H s       :    -0.000076  s :    -0.000076
      pz      :    -0.000020  p :    -0.000033
      px      :    -0.000016
      py      :     0.000003
 29 H s       :    -0.000775  s :    -0.000775
      pz      :    -0.000038  p :    -0.000059
      px      :    -0.000002
      py      :    -0.000020
 30 N s       :     0.000166  s :     0.000166
      pz      :    -0.007425  p :     0.028811
      px      :     0.018902
      py      :     0.017333
      dz2     :    -0.000032  d :     0.000711
      dxz     :     0.000270
      dyz     :     0.000037
      dx2y2   :     0.000463
      dxy     :    -0.000027
 31 N s       :    -0.000948  s :    -0.000948
      pz      :    -0.001907  p :    -0.007958
      px      :    -0.003494
      py      :    -0.002557
      dz2     :     0.000032  d :     0.004578
      dxz     :     0.000039
      dyz     :    -0.000357
      dx2y2   :     0.004740
      dxy     :     0.000125
 32 N s       :     0.001048  s :     0.001048
      pz      :    -0.001775  p :     0.078197
      px      :     0.038734
      py      :     0.041237
      dz2     :    -0.000027  d :    -0.000206
      dxz     :    -0.000035
      dyz     :    -0.000010
      dx2y2   :    -0.000177
      dxy     :     0.000043
 33 C s       :    -0.000085  s :    -0.000085
      pz      :    -0.000023  p :     0.000587
      px      :    -0.000228
      py      :     0.000838
      dz2     :    -0.000017  d :    -0.000191
      dxz     :    -0.000016
      dyz     :    -0.000004
      dx2y2   :    -0.000096
      dxy     :    -0.000058
 34 H s       :    -0.000694  s :    -0.000694
      pz      :    -0.000013  p :     0.000006
      px      :     0.000000
      py      :     0.000018
 35 H s       :    -0.000094  s :    -0.000094
      pz      :     0.000024  p :    -0.000001
      px      :    -0.000031
      py      :     0.000005
 36 C s       :     0.000013  s :     0.000013
      pz      :    -0.000091  p :    -0.000302
      px      :    -0.000143
      py      :    -0.000068
      dz2     :     0.000013  d :     0.000002
      dxz     :    -0.000002
      dyz     :    -0.000003
      dx2y2   :    -0.000007
      dxy     :     0.000000
 37 H s       :     0.000110  s :     0.000110
      pz      :     0.000009  p :    -0.000003
      px      :    -0.000008
      py      :    -0.000004
 38 H s       :     0.000051  s :     0.000051
      pz      :    -0.000001  p :    -0.000004
      px      :    -0.000001
      py      :    -0.000002
 39 C s       :    -0.000019  s :    -0.000019
      pz      :    -0.000059  p :     0.000102
      px      :     0.000157
      py      :     0.000004
      dz2     :    -0.000002  d :    -0.000225
      dxz     :    -0.000027
      dyz     :    -0.000126
      dx2y2   :    -0.000060
      dxy     :    -0.000009
 40 H s       :     0.001272  s :     0.001272
      pz      :    -0.000101  p :    -0.000404
      px      :    -0.000038
      py      :    -0.000266
 41 H s       :     0.000026  s :     0.000026
      pz      :     0.000010  p :     0.000014
      px      :    -0.000001
      py      :     0.000005
 42 H s       :    -0.000832  s :    -0.000832
      pz      :    -0.000007  p :    -0.000055
      px      :    -0.000044
      py      :    -0.000005
 43 H s       :    -0.000169  s :    -0.000169
      pz      :    -0.000017  p :    -0.000051
      px      :    -0.000017
      py      :    -0.000018
 44 H s       :    -0.000830  s :    -0.000830
      pz      :     0.000007  p :     0.000008
      px      :    -0.000000
      py      :     0.000001


                      *****************************
                      * MAYER POPULATION ANALYSIS *
                      *****************************

  NA   - Mulliken gross atomic population
  ZA   - Total nuclear charge
  QA   - Mulliken gross atomic charge
  VA   - Mayer's total valence
  BVA  - Mayer's bonded valence
  FA   - Mayer's free valence

  ATOM       NA         ZA         QA         VA         BVA        FA
  0 Fe    25.7809    26.0000     0.2191     5.4291     4.8493     0.5798
  1 N      7.2600     7.0000    -0.2600     3.4706     3.4703     0.0003
  2 H      0.8356     1.0000     0.1644     0.9722     0.9722     0.0000
  3 N      7.2487     7.0000    -0.2487     3.4529     3.4526     0.0003
  4 H      0.8345     1.0000     0.1655     0.9898     0.9898     0.0000
  5 N      7.3707     7.0000    -0.3707     2.9861     2.9840     0.0021
  6 N      6.6916     7.0000     0.3084     3.4358     3.4356     0.0001
  7 N      7.2543     7.0000    -0.2543     2.6233     2.6158     0.0076
  8 C      5.9205     6.0000     0.0795     3.9693     3.9693     0.0000
  9 H      0.9306     1.0000     0.0694     1.0066     1.0066     0.0000
 10 H      0.9282     1.0000     0.0718     0.9854     0.9854     0.0000
 11 C      5.9206     6.0000     0.0794     3.9878     3.9878     0.0000
 12 H      0.9426     1.0000     0.0574     0.9803     0.9803     0.0000
 13 H      0.9376     1.0000     0.0624     1.0111     1.0111     0.0000
 14 C      6.0296     6.0000    -0.0296     4.0906     4.0906     0.0000
 15 H      0.9512     1.0000     0.0488     0.9939     0.9939     0.0000
 16 H      0.9308     1.0000     0.0692     0.9846     0.9846     0.0000
 17 C      5.9313     6.0000     0.0687     4.0139     4.0139     0.0000
 18 H      0.9398     1.0000     0.0602     0.9945     0.9945     0.0000
 19 H      0.9415     1.0000     0.0585     0.9806     0.9806     0.0000
 20 C      5.9390     6.0000     0.0610     3.9853     3.9853     0.0000
 21 H      0.9306     1.0000     0.0694     0.9863     0.9863     0.0000
 22 H      0.9359     1.0000     0.0641     1.0211     1.0211     0.0000
 23 C      5.9384     6.0000     0.0616     3.9851     3.9851     0.0000
 24 N      7.2475     7.0000    -0.2475     3.4541     3.4539     0.0003
 25 N      7.2664     7.0000    -0.2664     3.4688     3.4686     0.0002
 26 H      0.8341     1.0000     0.1659     0.9677     0.9677     0.0000
 27 C      5.9190     6.0000     0.0810     3.9706     3.9706     0.0000
 28 H      0.9319     1.0000     0.0681     1.0084     1.0084     0.0000
 29 H      0.9275     1.0000     0.0725     0.9855     0.9855     0.0000
 30 N      7.3614     7.0000    -0.3614     2.9702     2.9681     0.0020
 31 N      6.6977     7.0000     0.3023     3.4182     3.4181     0.0001
 32 N      7.2560     7.0000    -0.2560     2.6210     2.6133     0.0078
 33 C      5.9272     6.0000     0.0728     3.9968     3.9968     0.0000
 34 H      0.9409     1.0000     0.0591     0.9805     0.9805     0.0000
 35 H      0.9379     1.0000     0.0621     1.0055     1.0055     0.0000
 36 C      6.0270     6.0000    -0.0270     4.0837     4.0837     0.0000
 37 H      0.9504     1.0000     0.0496     0.9938     0.9938     0.0000
 38 H      0.9293     1.0000     0.0707     0.9846     0.9846     0.0000
 39 C      5.9382     6.0000     0.0618     4.0097     4.0097     0.0000
 40 H      0.8357     1.0000     0.1643     0.9910     0.9910     0.0000
 41 H      0.9399     1.0000     0.0601     1.0050     1.0050     0.0000
 42 H      0.9304     1.0000     0.0696     0.9866     0.9866     0.0000
 43 H      0.9362     1.0000     0.0638     1.0175     1.0175     0.0000
 44 H      0.9411     1.0000     0.0589     0.9812     0.9812     0.0000

  Mayer bond orders larger than 0.1
B(  0-Fe,  1-N ) :   0.6263 B(  0-Fe,  3-N ) :   0.6285 B(  0-Fe,  5-N ) :   0.8486 
B(  0-Fe,  7-N ) :   0.1412 B(  0-Fe, 24-N ) :   0.6334 B(  0-Fe, 25-N ) :   0.6268 
B(  0-Fe, 30-N ) :   0.8523 B(  0-Fe, 32-N ) :   0.1437 B(  1-N ,  2-H ) :   0.8920 
B(  1-N ,  8-C ) :   0.9490 B(  1-N , 11-C ) :   0.9378 B(  3-N ,  4-H ) :   0.8748 
B(  3-N , 17-C ) :   0.9507 B(  3-N , 20-C ) :   0.9503 B(  5-N ,  6-N ) :   1.5069 
B(  5-N ,  7-N ) :   0.5131 B(  6-N ,  7-N ) :   1.8625 B(  8-C ,  9-H ) :   0.9308 
B(  8-C , 10-H ) :   0.9348 B(  8-C , 23-C ) :   1.0772 B( 11-C , 12-H ) :   0.9326 
B( 11-C , 13-H ) :   0.9309 B( 11-C , 14-C ) :   1.0898 B( 14-C , 15-H ) :   0.9360 
B( 14-C , 16-H ) :   0.9136 B( 14-C , 17-C ) :   1.0861 B( 17-C , 18-H ) :   0.9390 
B( 17-C , 19-H ) :   0.9343 B( 20-C , 21-H ) :   0.9335 B( 20-C , 22-H ) :   0.9317 
B( 20-C , 27-C ) :   1.0793 B( 23-C , 24-N ) :   0.9480 B( 23-C , 42-H ) :   0.9343 
B( 23-C , 43-H ) :   0.9330 B( 24-N , 39-C ) :   0.9520 B( 24-N , 40-H ) :   0.8729 
B( 25-N , 26-H ) :   0.8920 B( 25-N , 27-C ) :   0.9465 B( 25-N , 33-C ) :   0.9372 
B( 27-C , 28-H ) :   0.9305 B( 27-C , 29-H ) :   0.9346 B( 30-N , 31-N ) :   1.4924 
B( 30-N , 32-N ) :   0.5149 B( 31-N , 32-N ) :   1.8585 B( 33-C , 34-H ) :   0.9323 
B( 33-C , 35-H ) :   0.9348 B( 33-C , 36-C ) :   1.0878 B( 36-C , 37-H ) :   0.9360 
B( 36-C , 38-H ) :   0.9131 B( 36-C , 39-C ) :   1.0846 B( 39-C , 41-H ) :   0.9358 
B( 39-C , 44-H ) :   0.9342 

-------
TIMINGS
-------

Total SCF time: 0 days 0 hours 2 min 25 sec 

Total time                  ....     145.549 sec
Sum of individual times     ....     144.937 sec  ( 99.6%)

Fock matrix formation       ....     132.206 sec  ( 90.8%)
  Split-RI-J                ....      79.138 sec  ( 59.9% of F)
  XC integration            ....      52.742 sec  ( 39.9% of F)
    Basis function eval.    ....      12.089 sec  ( 22.9% of XC)
    Density eval.           ....      17.968 sec  ( 34.1% of XC)
    XC-Functional eval.     ....       1.744 sec  (  3.3% of XC)
    XC-Potential eval.      ....      20.204 sec  ( 38.3% of XC)
Diagonalization             ....       2.156 sec  (  1.5%)
Density matrix formation    ....       0.362 sec  (  0.2%)
Population analysis         ....       0.060 sec  (  0.0%)
Initial guess               ....       2.610 sec  (  1.8%)
Orbital Transformation      ....       0.000 sec  (  0.0%)
Orbital Orthonormalization  ....       0.000 sec  (  0.0%)
DIIS solution               ....       0.807 sec  (  0.6%)
Grid generation             ....       6.736 sec  (  4.6%)

-------------------------   --------------------
FINAL SINGLE POINT ENERGY     -2205.957371288759
-------------------------   --------------------


                            ***************************************
                            *     ORCA property calculations      *
                            ***************************************

                                    ---------------------
                                    Active property flags
                                    ---------------------
   (+) Dipole Moment
   (+) Nuclear properties (Hyperfine,Quadrupole)


------------------------------------------------------------------------------
                       ORCA ELECTRIC PROPERTIES CALCULATION
------------------------------------------------------------------------------

Dipole Moment Calculation                       ... on
Quadrupole Moment Calculation                   ... off
Polarizability Calculation                      ... off
GBWName                                         ... moess.gbw
Electron density file                           ... moess.scfp.tmp
The origin for moment calculation is the CENTER OF MASS  = (-0.024820,  0.017078 -0.000673)

-------------
DIPOLE MOMENT
-------------
                                X             Y             Z
Electronic contribution:     -0.43737       0.29166      -0.02405
Nuclear contribution   :      0.60875      -0.42615       0.02012
                        -----------------------------------------
Total Dipole Moment    :      0.17138      -0.13449      -0.00393
                        -----------------------------------------
Magnitude (a.u.)       :      0.21789
Magnitude (Debye)      :      0.55384



--------------------
Rotational spectrum 
--------------------
 
Rotational constants in cm-1:     0.012267     0.010539     0.008992 
Rotational constants in MHz :   367.769099   315.955498   269.582638 

 Dipole components along the rotational axes: 
x,y,z [a.u.] :    -0.130044     0.174679    -0.007267 
x,y,z [Debye]:    -0.330546     0.443998    -0.018472 

 
------------------------------------------------------------------------------
                                ORCA EPR/NMR CALCULATION
------------------------------------------------------------------------------

GBWName                      ... moess.gbw
Electron density file        ... moess.scfp.tmp
Spin density file            ... moess.scfr.tmp
Multiplicity                 ... 2
g-tensor                     ... 0
NMR chemical shifts          ... 0
Number of nuclei for epr/nmr ... 1
   Nucleus:   0Fe
       Hyperfine : Isotope=   57 I=   0.500 P=  17.280
       Quadrupole: Isotope=   57 I=   0.500 Q=   0.160
       Spin-Orbit: Zeff=  13.910
       Ncuelar Spin-Spin: Gn=   0.000
       rho(0)=Y f(grad)=Y a(iso)=N a(dip)=N a(orb)=N sigma(nmr)=N spin-spin(nmr)=all-N,DSO-N,PSO-N,FC-N,SD-N

-----------------------------------------
ELECTRIC AND MAGNETIC HYPERFINE STRUCTURE
-----------------------------------------

 -----------------------------------------------------------
 Nucleus   0Fe: A:ISTP=   57 I=  0.5 P= 17.2798 MHz/au**3
                Q:ISTP=   57 I=  0.5 Q=  0.1600 barn     
 -----------------------------------------------------------
 Raw EFG matrix (all values in a.u.**-3):
             0.0568      -0.4190       0.4188
            -0.4190      -0.0028       0.5879
             0.4188       0.5879      -0.0541

 V(El)       0.4769       0.6226      -1.0995
 V(Nuc)     -0.0763      -0.0618       0.1381
         ----------   ----------   ----------
 V(Tot)      0.4006       0.5608      -0.9614 
 Orientation: 
  X       0.8620787   -0.0631216   -0.5028279
  Y      -0.2960876    0.7425113   -0.6008404
  Z       0.4112814    0.6668528    0.6214136

Note: Tensor is right-handed

Moessbauer quadrupole splitting parameter (proper coordinate system)
 e**2qQ  =  -36.143 MHz =   -3.116 mm/s
 eta     =  0.167
 Delta-EQ=(1/2{e**2qQ}*sqrt(1+1/3*eta**2) =  -18.155 MHz =   -1.565 mm/s
 RHO(0)=  11189.360114885 a.u.**-3


------------------------------------------------------------------------------- 

Timings for individual modules:

Sum of individual times         ...      146.270 sec (=   2.438 min)
GTO integral calculation        ...        0.410 sec (=   0.007 min)   0.3 %
SCF iterations                  ...      145.574 sec (=   2.426 min)  99.5 %
EPR/NMR calculation             ...        0.286 sec (=   0.005 min)   0.2 %
                             ****ORCA TERMINATED NORMALLY****
TOTAL RUN TIME: 0 days 0 hours 2 minutes 26 seconds 477 msec
